variables="x","y","T"
zone t="Temperature" n=1000 e=950 et=quadrilateral f=fepoint
4.8175250626134485e+00 0.0000000000000000e+00 2.2830000000000000e+03
5.0498847813571457e+00 0.0000000000000000e+00 2.2120881001773250e+03
5.2822445001008429e+00 0.0000000000000000e+00 2.1194666538720730e+03
5.5146042188445401e+00 0.0000000000000000e+00 2.0155235867100680e+03
5.7469639375882373e+00 0.0000000000000000e+00 1.9108987561650852e+03
5.9793236563319354e+00 0.0000000000000000e+00 1.7983684023879321e+03
6.2116833750756326e+00 0.0000000000000000e+00 1.6879381693414336e+03
6.4440430938193298e+00 0.0000000000000000e+00 1.5715284876929011e+03
6.6764028125630270e+00 0.0000000000000000e+00 1.4581610089303535e+03
6.9087625313067242e+00 0.0000000000000000e+00 1.3400812108888890e+03
7.1411222500504214e+00 0.0000000000000000e+00 1.2251066957924918e+03
7.3734819687941187e+00 0.0000000000000000e+00 1.1063982785117523e+03
7.6058416875378168e+00 0.0000000000000000e+00 9.9043290205364121e+02
7.8382014062815131e+00 0.0000000000000000e+00 8.7162334383626353e+02
8.0705611250252112e+00 0.0000000000000000e+00 7.5495979206639413e+02
8.3029208437689093e+00 0.0000000000000000e+00 6.3635058129788513e+02
8.5352805625126056e+00 0.0000000000000000e+00 5.1913923697344558e+02
8.7676402812563019e+00 0.0000000000000000e+00 4.0095476857293949e+02
9.0000000000000000e+00 0.0000000000000000e+00 2.8336902996800131e+02
1.0000000000000000e+01 0.0000000000000000e+00 2.8300000000000000e+02
4.7675917552173050e+00 6.0228690312139210e-01 2.2830000000000000e+03
4.9987828972513606e+00 6.3149313639680027e-01 2.1919534102303178e+03
5.2299740392854153e+00 6.6069936967220833e-01 2.1007407326824477e+03
5.4611651813194708e+00 6.8990560294761649e-01 2.0057445220548634e+03
5.6923563233535264e+00 7.1911183622302455e-01 1.8993940783424816e+03
5.9235474653875819e+00 7.4831806949843271e-01 1.7934384094828843e+03
6.1547386074216375e+00 7.7752430277384088e-01 1.6799028254941272e+03
6.3859297494556930e+00 8.0673053604924905e-01 1.5688371436926498e+03
6.6171208914897486e+00 8.3593676932465710e-01 1.4521850731137417e+03
6.8483120335238032e+00 8.6514300260006527e-01 1.3385637792799337e+03
7.0795031755578588e+00 8.9434923587547344e-01 1.2206119548767244e+03
7.3106943175919143e+00 9.2355546915088149e-01 1.1055649688286599e+03
7.5418854596259690e+00 9.5276170242628966e-01 9.8717544531587430e+02
7.7730766016600246e+00 9.8196793570169771e-01 8.7122638861911184e+02
8.0042677436940792e+00 1.0111741689771059e+00 7.5285392009810118e+02
8.2354588857281357e+00 1.0403804022525140e+00 6.3625770393860523e+02
8.4666500277621903e+00 1.0695866355279220e+00 5.1817358814517661e+02
8.6978411697962450e+00 1.0987928688033302e+00 4.0104352158924252e+02
8.9290323118303014e+00 1.1279991020787383e+00 2.8336243284483936e+02
9.9211470131447790e+00 1.2533323356430426e+00 2.8300000000000000e+02
4.7674650871165909e+00 1.2240769839482635e+00 2.2830000000000000e+03
4.9868974961744286e+00 1.2804176506446761e+00 2.1950234906777578e+03
5.2063299052322671e+00 1.3367583173410889e+00 2.0948958036407503e+03
5.4257623142901057e+00 1.3930989840375017e+00 1.9836145687748367e+03
5.6451947233479434e+00 1.4494396507339145e+00 1.8754309004708937e+03
5.8646271324057828e+00 1.5057803174303273e+00 1.7609744506716527e+03
6.0840595414636205e+00 1.5621209841267401e+00 1.6506216026132201e+03
6.3034919505214591e+00 1.6184616508231529e+00 1.5352762250180338e+03
6.5229243595792967e+00 1.6748023175195657e+00 1.4239193349622483e+03
6.7423567686371353e+00 1.7311429842159782e+00 1.3083578028679967e+03
6.9617891776949730e+00 1.7874836509123910e+00 1.1963452952557750e+03
7.1812215867528115e+00 1.8438243176088038e+00 1.0808576902095240e+03
7.4006539958106510e+00 1.9001649843052166e+00 9.6832237340171969e+02
7.6200864048684878e+00 1.9565056510016292e+00 8.5307255866419314e+02
7.8395188139263272e+00 2.0128463176980422e+00 7.4006358713897441e+02
8.0589512229841649e+00 2.0691869843944546e+00 6.2516668655106889e+02
8.2783836320420026e+00 2.1255276510908678e+00 5.1169939891821315e+02
8.4978160410998420e+00 2.1818683177872806e+00 3.9726268476595055e+02
8.7172484501576797e+00 2.2382089844836930e+00 2.8337308384067120e+02
9.6858316112863108e+00 2.4868988716485481e+00 2.8300000000000000e+02
4.8007694881770018e+00 1.9007591041507759e+00 2.2830000000000000e+03
4.9989483151112939e+00 1.9792236524847382e+00 2.1576504576247330e+03
5.1971271420455860e+00 2.0576882008187010e+00 2.0308032273657980e+03
5.3953059689798781e+00 2.1361527491526635e+00 1.9160900940800361e+03
5.5934847959141702e+00 2.2146172974866261e+00 1.7990925474180194e+03
5.7916636228484624e+00 2.2930818458205886e+00 1.6896539336476981e+03
5.9898424497827545e+00 2.3715463941545512e+00 1.5767718054885556e+03
6.1880212767170466e+00 2.4500109424885137e+00 1.4695091025590395e+03
6.3862001036513396e+00 2.5284754908224762e+00 1.3586019384415285e+03
6.5843789305856317e+00 2.6069400391564388e+00 1.2521876317911676e+03
6.7825577575199238e+00 2.6854045874904013e+00 1.1424007646019286e+03
6.9807365844542169e+00 2.7638691358243639e+00 1.0362212192330842e+03
7.1789154113885081e+00 2.8423336841583264e+00 9.2717939301524564e+02
7.3770942383228011e+00 2.9207982324922890e+00 8.2090913411241991e+02
7.5752730652570941e+00 2.9992627808262520e+00 7.1243901429678931e+02
7.7734518921913853e+00 3.0777273291602141e+00 6.0587504947654122e+02
7.9716307191256783e+00 3.1561918774941766e+00 4.9789513386663106e+02
8.1698095460599696e+00 3.2346564258281392e+00 3.9089405044599704e+02
8.3679883729942617e+00 3.3131209741621017e+00 2.8339030263702676e+02
9.2977648588825126e+00 3.6812455268467796e+00 2.8300000000000000e+02
4.5706918590904682e+00 2.5127591132746061e+00 2.2830000000000000e+03
4.7549178736073738e+00 2.6140382218102078e+00 2.1308186646811860e+03
4.9391438881242804e+00 2.7153173303458100e+00 2.0105428563186952e+03
5.1233699026411852e+00 2.8165964388814113e+00 1.8900948159388302e+03
5.3075959171580909e+00 2.9178755474170130e+00 1.7797107124158440e+03
5.4918219316749974e+00 3.0191546559526152e+00 1.6662180627506634e+03
5.6760479461919031e+00 3.1204337644882170e+00 1.5593780758752760e+03
5.8602739607088088e+00 3.2217128730238187e+00 1.4489405092475465e+03
6.0444999752257145e+00 3.3229919815594200e+00 1.3436570219724849e+03
6.2287259897426202e+00 3.4242710900950222e+00 1.2348872768492015e+03
6.4129520042595258e+00 3.5255501986306239e+00 1.1302438057092020e+03
6.5971780187764315e+00 3.6268293071662252e+00 1.0225109937410124e+03
6.7814040332933381e+00 3.7281084157018278e+00 9.1801977076063736e+02
6.9656300478102429e+00 3.8293875242374291e+00 8.1101500122531934e+02
7.1498560623271485e+00 3.9306666327730304e+00 7.0638379925338540e+02
7.3340820768440551e+00 4.0319457413086326e+00 5.9994729270748132e+02
7.5183080913609599e+00 4.1332248498442343e+00 4.9496526626252728e+02
7.7025341058778674e+00 4.2345039583798361e+00 3.8898023691872157e+02
7.8867601203947721e+00 4.3357830669154378e+00 2.8339041357168531e+02
8.7630668004386365e+00 4.8175367410171530e+00 2.8300000000000000e+02
3.9772185149228889e+00 2.8896183942618028e+00 2.2830000000000000e+03
4.1607704279479796e+00 3.0229766651712726e+00 2.2088854490387330e+03
4.3443223409730711e+00 3.1563349360807424e+00 2.0962597868913786e+03
4.5278742539981618e+00 3.2896932069902123e+00 1.9869285251773870e+03
4.7114261670232533e+00 3.4230514778996821e+00 1.8696996185474584e+03
4.8949780800483440e+00 3.5564097488091519e+00 1.7580713401776520e+03
5.0785299930734347e+00 3.6897680197186209e+00 1.6414089372445840e+03
5.2620819060985253e+00 3.8231262906280907e+00 1.5298004137875810e+03
5.4456338191236169e+00 3.9564845615375606e+00 1.4139787056081097e+03
5.6291857321487075e+00 4.0898428324470304e+00 1.3024328447616058e+03
5.8127376451737991e+00 4.2232011033565007e+00 1.1872710472220856e+03
5.9962895581988898e+00 4.3565593742659692e+00 1.0756146633168387e+03
6.1798414712239804e+00 4.4899176451754395e+00 9.6098128469697258e+02
6.3633933842490720e+00 4.6232759160849088e+00 8.4907284312499621e+02
6.5469452972741626e+00 4.7566341869943791e+00 7.3491808362772895e+02
6.7304972102992542e+00 4.8899924579038485e+00 6.2266576963304669e+02
6.9140491233243448e+00 5.0233507288133188e+00 5.0900826217723727e+02
7.0976010363494364e+00 5.1567089997227882e+00 3.9638300099484076e+02
7.2811529493745271e+00 5.2900672706322585e+00 2.8337046099004590e+02
8.0901699437494745e+00 5.8778525229247318e+00 2.8300000000000000e+02
3.5212322507307894e+00 3.3066571809366239e+00 2.2830000000000000e+03
3.6900925505120066e+00 3.4652275571822666e+00 2.1764607775635086e+03
3.8589528502932242e+00 3.6237979334279098e+00 2.0827596743497897e+03
4.0278131500744419e+00 3.7823683096735525e+00 1.9747142586529674e+03
4.1966734498556590e+00 3.9409386859191957e+00 1.8705122906225981e+03
4.3655337496368771e+00 4.0995090621648389e+00 1.7582758182833818e+03
4.5343940494180943e+00 4.2580794384104825e+00 1.6500139345101088e+03
4.7032543491993115e+00 4.4166498146561253e+00 1.5358492936821885e+03
4.8721146489805296e+00 4.5752201909017680e+00 1.4254556602362043e+03
5.0409749487617468e+00 4.7337905671474108e+00 1.3103847155111255e+03
5.2098352485429640e+00 4.8923609433930544e+00 1.1986823850478486e+03
5.3786955483241812e+00 5.0509313196386971e+00 1.0832483375375284e+03
5.5475558481053993e+00 5.2095016958843408e+00 9.7063865148007699e+02
5.7164161478866165e+00 5.3680720721299826e+00 8.5517164968329837e+02
5.8852764476678345e+00 5.5266424483756262e+00 7.4186378539903797e+02
6.0541367474490508e+00 5.6852128246212690e+00 6.2659016179638229e+02
6.2229970472302689e+00 5.8437832008669126e+00 5.1269863933092370e+02
6.3918573470114870e+00 6.0023535771125562e+00 3.9779261651882791e+02
6.5607176467927042e+00 6.1609239533581981e+00 2.8335663179245540e+02
7.2896862742141160e+00 6.8454710592868873e+00 2.8300000000000000e+02
3.0521489399509516e+00 3.6894142909235086e+00 2.2830000000000000e+03
3.2012971048280217e+00 3.8697034517045417e+00 2.1764152571372833e+03
3.3504452697050913e+00 4.0499926124855747e+00 2.0672316838887623e+03
3.4995934345821609e+00 4.2302817732666078e+00 1.9691984761394024e+03
3.6487415994592309e+00 4.4105709340476409e+00 1.8620219398408080e+03
3.7978897643363005e+00 4.5908600948286740e+00 1.7586760781295511e+03
3.9470379292133697e+00 4.7711492556097062e+00 1.6476941868762508e+03
4.0961860940904398e+00 4.9514384163907401e+00 1.5399960437885884e+03
4.2453342589675094e+00 5.1317275771717723e+00 1.4264050367181658e+03
4.3944824238445799e+00 5.3120167379528063e+00 1.3159574384213206e+03
4.5436305887216486e+00 5.4923058987338385e+00 1.2009265313378435e+03
4.6927787535987191e+00 5.6725950595148724e+00 1.0887356416708335e+03
4.8419269184757878e+00 5.8528842202959046e+00 9.7302642634472636e+02
4.9910750833528583e+00 6.0331733810769377e+00 8.5966604190903240e+02
5.1402232482299279e+00 6.2134625418579708e+00 7.4376296626772125e+02
5.2893714131069984e+00 6.3937517026390047e+00 6.2955318964444029e+02
5.4385195779840672e+00 6.5740408634200369e+00 5.1376529988818095e+02
5.5876677428611368e+00 6.7543300242010691e+00 3.9885269007386944e+02
5.7368159077382064e+00 6.9346191849821031e+00 2.8334877469698290e+02
6.3742398974868966e+00 7.7051324277578921e+00 2.8300000000000000e+02
2.4761815486863372e+00 3.9018377762363565e+00 2.2830000000000000e+03
2.6065293045821503e+00 4.1072329736409001e+00 2.2126966306438030e+03
2.7368770604779629e+00 4.3126281710454437e+00 2.1312558232509728e+03
2.8672248163737755e+00 4.5180233684499864e+00 2.0290440903007404e+03
2.9975725722695885e+00 4.7234185658545291e+00 1.9278097667403035e+03
3.1279203281654016e+00 4.9288137632590727e+00 1.8157798591861185e+03
3.2582680840612146e+00 5.1342089606636163e+00 1.7063770637653174e+03
3.3886158399570276e+00 5.3396041580681599e+00 1.5896929140222242e+03
3.5189635958528398e+00 5.5449993554727026e+00 1.4760353029893688e+03
3.6493113517486528e+00 5.7503945528772462e+00 1.3569828310964442e+03
3.7796591076444659e+00 5.9557897502817898e+00 1.2408750760122643e+03
3.9100068635402785e+00 6.1611849476863325e+00 1.1206499689094435e+03
4.0403546194360915e+00 6.3665801450908761e+00 1.0030112955755422e+03
4.1707023753319046e+00 6.5719753424954188e+00 8.8231134398587835e+02
4.3010501312277167e+00 6.7773705398999615e+00 7.6364895963589822e+02
4.4313978871235307e+00 6.9827657373045060e+00 6.4292921799059934e+02
4.5617456430193428e+00 7.1881609347090487e+00 5.2355597934490186e+02
4.6920933989151568e+00 7.3935561321135932e+00 4.0317328348351020e+02
4.8224411548109689e+00 7.5989513295181359e+00 2.8334378429617448e+02
5.3582679497899655e+00 8.4432792550201512e+00 2.8300000000000000e+02
2.0403445546130450e+00 4.3359528890649743e+00 2.2830000000000000e+03
2.1398817251393010e+00 4.5474801436832637e+00 2.2100252272688072e+03
2.2394188956655570e+00 4.7590073983015522e+00 2.1094037578902530e+03
2.3389560661918130e+00 4.9705346529198415e+00 2.0085563867537080e+03
2.4384932367180689e+00 5.1820619075381300e+00 1.8957124870349965e+03
2.5380304072443249e+00 5.3935891621564194e+00 1.7870373480683947e+03
2.6375675777705814e+00 5.6051164167747087e+00 1.6712275650224010e+03
2.7371047482968374e+00 5.8166436713929981e+00 1.5596415197243507e+03
2.8366419188230938e+00 6.0281709260112866e+00 1.4427566806630171e+03
2.9361790893493498e+00 6.2396981806295759e+00 1.3296166507986700e+03
3.0357162598756058e+00 6.4512254352478644e+00 1.2122775804020264e+03
3.1352534304018618e+00 6.6627526898661538e+00 1.0981164184502197e+03
3.2347906009281178e+00 6.8742799444844422e+00 9.8066299345171865e+02
3.3343277714543738e+00 7.0858071991027316e+00 8.6574500490523519e+02
3.4338649419806297e+00 7.2973344537210201e+00 7.4841685375754730e+02
3.5334021125068857e+00 7.5088617083393094e+00 6.3289316941371101e+02
3.6329392830331417e+00 7.7203889629575979e+00 5.1588634492478013e+02
3.7324764535593977e+00 7.9319162175758873e+00 3.9985766787825230e+02
3.8320136240856542e+00 8.1434434721941766e+00 2.8335830402038499e+02
4.2577929156507270e+00 9.0482705246601967e+00 2.8300000000000000e+02
1.5868096285114541e+00 4.8836978703008818e+00 2.2830000000000000e+03
1.6531620352260694e+00 5.0879095800984091e+00 2.1495859936599704e+03
1.7195144419406845e+00 5.2921212898959373e+00 2.0341528198732753e+03
1.7858668486552998e+00 5.4963329996934647e+00 1.9156348054523278e+03
1.8522192553699148e+00 5.7005447094909929e+00 1.8072421979582018e+03
1.9185716620845301e+00 5.9047564192885211e+00 1.6937428156193794e+03
1.9849240687991450e+00 6.1089681290860476e+00 1.5867958760447475e+03
2.0512764755137605e+00 6.3131798388835767e+00 1.4751884663347298e+03
2.1176288822283755e+00 6.5173915486811032e+00 1.3685364090213657e+03
2.1839812889429906e+00 6.7216032584786323e+00 1.2578631595546792e+03
2.2503336956576057e+00 6.9258149682761587e+00 1.1511520573642738e+03
2.3166861023722212e+00 7.1300266780736878e+00 1.0410829598064590e+03
2.3830385090868362e+00 7.3342383878712152e+00 9.3414622877185695e+02
2.4493909158014513e+00 7.5384500976687425e+00 8.2456165240638290e+02
2.5157433225160664e+00 7.7426618074662708e+00 7.1728671245665544e+02
2.5820957292306814e+00 7.9468735172637972e+00 6.0814246168927411e+02
2.6484481359452969e+00 8.1510852270613263e+00 5.0042410087904460e+02
2.7148005426599120e+00 8.3552969368588546e+00 3.9168868407618180e+02
2.7811529493745271e+00 8.5595086466563810e+00 2.8338596848813035e+02
3.0901699437494745e+00 9.5105651629515346e+00 2.8300000000000000e+02
9.7429601631231066e-01 5.1074385798563737e+00 2.2830000000000000e+03
1.0138591171433780e+00 5.3148356174509201e+00 2.1561993827685519e+03
1.0534222179744450e+00 5.5222326550454657e+00 2.0315498154951233e+03
1.0929853188055123e+00 5.7296296926400112e+00 1.9195313575953601e+03
1.1325484196365796e+00 5.9370267302345576e+00 1.8026877772639496e+03
1.1721115204676467e+00 6.1444237678291023e+00 1.6940620471663231e+03
1.2116746212987139e+00 6.3518208054236487e+00 1.5807530543111957e+03
1.2512377221297812e+00 6.5592178430181951e+00 1.4733976014486261e+03
1.2908008229608485e+00 6.7666148806127406e+00 1.3619552781968830e+03
1.3303639237919158e+00 6.9740119182072871e+00 1.2551812388604428e+03
1.3699270246229829e+00 7.1814089558018317e+00 1.1449081064728596e+03
1.4094901254540502e+00 7.3888059933963781e+00 1.0383425560142848e+03
1.4490532262851175e+00 7.5962030309909236e+00 9.2889958076492235e+02
1.4886163271161845e+00 7.8036000685854692e+00 8.2228905882971264e+02
1.5281794279472516e+00 8.0109971061800138e+00 7.1349522178595851e+02
1.5677425287783191e+00 8.2183941437745620e+00 6.0664502733911741e+02
1.6073056296093862e+00 8.4257911813691067e+00 4.9839729271822358e+02
1.6468687304404535e+00 8.6331882189636531e+00 3.9114880973321380e+02
1.6864318312715207e+00 8.8405852565581977e+00 2.8339927636168329e+02
1.8738131458572451e+00 9.8228725072868865e+00 2.8300000000000000e+02
3.2176665937518978e-01 5.1143345966996918e+00 2.2830000000000000e+03
3.3528599361900258e-01 5.3292182610971786e+00 2.1798745495512876e+03
3.4880532786281532e-01 5.5441019254946644e+00 2.0737630706449631e+03
3.6232466210662811e-01 5.7589855898921511e+00 1.9564605382670336e+03
3.7584399635044091e-01 5.9738692542896370e+00 1.8458485886898154e+03
3.8936333059425365e-01 6.1887529186871229e+00 1.7287855399016159e+03
4.0288266483806645e-01 6.4036365830846096e+00 1.6180757883271217e+03
4.1640199908187919e-01 6.6185202474820954e+00 1.5027440389681417e+03
4.2992133332569199e-01 6.8334039118795822e+00 1.3926352337715537e+03
4.4344066756950479e-01 7.0482875762770680e+00 1.2787410322244752e+03
4.5696000181331753e-01 7.2631712406745539e+00 1.1690731503046079e+03
4.7047933605713033e-01 7.4780549050720406e+00 1.0562578091484777e+03
4.8399867030094307e-01 7.6929385694695265e+00 9.4676925700139088e+02
4.9751800454475587e-01 7.9078222338670132e+00 8.3478751722978450e+02
5.1103733878856861e-01 8.1227058982644991e+00 7.2525091084303006e+02
5.2455667303238140e-01 8.3375895626619840e+00 6.1395854087534440e+02
5.3807600727619420e-01 8.5524732270594708e+00 5.0419734404299902e+02
5.5159534152000700e-01 8.7673568914569593e+00 3.9352076337729386e+02
5.6511467576381968e-01 8.9822405558544443e+00 2.8339872846628236e+02
6.2790519529313304e-01 9.9802672842827160e+00 2.8300000000000000e+02
-3.2409348554268080e-01 5.1513184395627496e+00 2.2830000000000000e+03
-3.3748355166607746e-01 5.3641474460233995e+00 2.1731925193898601e+03
-3.5087361778947412e-01 5.5769764524840495e+00 2.0546940527697507e+03
-3.6426368391287078e-01 5.7898054589446986e+00 1.9442551784460857e+03
-3.7765375003626739e-01 6.0026344654053476e+00 1.8270848842702751e+03
-3.9104381615966410e-01 6.2154634718659976e+00 1.7173804667767238e+03
-4.0443388228306076e-01 6.4282924783266475e+00 1.6025377325398356e+03
-4.1782394840645742e-01 6.6411214847872975e+00 1.4934911983257130e+03
-4.3121401452985408e-01 6.8539504912479474e+00 1.3802337457784602e+03
-4.4460408065325069e-01 7.0667794977085965e+00 1.2716195316188150e+03
-4.5799414677664740e-01 7.2796085041692473e+00 1.1594763196295755e+03
-4.7138421290004401e-01 7.4924375106298964e+00 1.0510461839615798e+03
-4.8477427902344067e-01 7.7052665170905454e+00 9.3973791263102578e+02
-4.9816434514683733e-01 7.9180955235511954e+00 8.3127515051322268e+02
-5.1155441127023393e-01 8.1309245300118445e+00 7.2063963059300511e+02
-5.2494447739363070e-01 8.3437535364724962e+00 6.1196642812033792e+02
-5.3833454351702725e-01 8.5565825429331444e+00 5.0191707472058931e+02
-5.5172460964042402e-01 8.7694115493937943e+00 3.9289761596499369e+02
-5.6511467576382057e-01 8.9822405558544443e+00 2.8340101824705596e+02
-6.2790519529313404e-01 9.9802672842827160e+00 2.8300000000000000e+02
-9.7581133136948817e-01 5.1153821395693146e+00 2.2830000000000000e+03
-1.0152902480307122e+00 5.3223378682909184e+00 2.1445893759558176e+03
-1.0547691646919364e+00 5.5292935970125230e+00 2.0276163412756928e+03
-1.0942480813531608e+00 5.7362493257341285e+00 1.9090653435790525e+03
-1.1337269980143849e+00 5.9432050544557331e+00 1.8010155976594206e+03
-1.1732059146756091e+00 6.1501607831773377e+00 1.6877892788462384e+03
-1.2126848313368332e+00 6.3571165118989414e+00 1.5812150139404882e+03
-1.2521637479980574e+00 6.5640722406205461e+00 1.4699360643758582e+03
-1.2916426646592816e+00 6.7710279693421516e+00 1.3636775032864352e+03
-1.3311215813205057e+00 6.9779836980637562e+00 1.2533940093465444e+03
-1.3706004979817299e+00 7.1849394267853599e+00 1.1471156040898236e+03
-1.4100794146429543e+00 7.3918951555069654e+00 1.0374929696449219e+03
-1.4495583313041782e+00 7.5988508842285691e+00 9.3103057328504372e+02
-1.4890372479654026e+00 7.8058066129501746e+00 8.2193647011378118e+02
-1.5285161646266268e+00 8.0127623416717793e+00 7.1516886252879419e+02
-1.5679950812878507e+00 8.2197180703933839e+00 6.0654261920031013e+02
-1.6074739979490751e+00 8.4266737991149885e+00 4.9934926132801530e+02
-1.6469529146102990e+00 8.6336295278365913e+00 3.9114221673077861e+02
-1.6864318312715234e+00 8.8405852565581977e+00 2.8339934936812097e+02
-1.8738131458572482e+00 9.8228725072868865e+00 2.8300000000000000e+02
-1.5470175266175148e+00 4.7612303733923023e+00 2.2830000000000000e+03
-1.6155806056595710e+00 4.9722458330180848e+00 2.1846407087168709e+03
-1.6841436847016273e+00 5.1832612926438673e+00 2.0740650505484159e+03
-1.7527067637436835e+00 5.3942767522696480e+00 1.9690334844998347e+03
-1.8212698427857399e+00 5.6052922118954305e+00 1.8549945808835282e+03
-1.8898329218277963e+00 5.8163076715212130e+00 1.7469723463426276e+03
-1.9583960008698527e+00 6.0273231311469955e+00 1.6326879057554775e+03
-2.0269590799119088e+00 6.2383385907727780e+00 1.5233204981369809e+03
-2.0955221589539650e+00 6.4493540503985596e+00 1.4090048441798265e+03
-2.1640852379960216e+00 6.6603695100243421e+00 1.2987580770922989e+03
-2.2326483170380778e+00 6.8713849696501246e+00 1.1845016870495003e+03
-2.3012113960801339e+00 7.0824004292759062e+00 1.0735925176011024e+03
-2.3697744751221905e+00 7.2934158889016887e+00 9.5950533838269098e+02
-2.4383375541642467e+00 7.5044313485274703e+00 8.4804324318085355e+02
-2.5069006332063024e+00 7.7154468081532519e+00 7.3423478538153472e+02
-2.5754637122483595e+00 7.9264622677790353e+00 6.2227009864665217e+02
-2.6440267912904152e+00 8.1374777274048178e+00 5.0884222611508409e+02
-2.7125898703324718e+00 8.3484931870306003e+00 3.9638515775713523e+02
-2.7811529493745279e+00 8.5595086466563810e+00 2.8338181768386056e+02
-3.0901699437494754e+00 9.5105651629515346e+00 2.8300000000000000e+02
-2.0405210570912198e+00 4.3363279759239255e+00 2.2830000000000000e+03
-2.1400484219242442e+00 4.5478343923833835e+00 2.2161332032955684e+03
-2.2395757867572681e+00 4.7593408088428415e+00 2.1294070824791847e+03
-2.3391031515902920e+00 4.9708472253023004e+00 2.0228086812919187e+03
-2.4386305164233164e+00 5.1823536417617593e+00 1.9186168593370980e+03
-2.5381578812563403e+00 5.3938600582212164e+00 1.8044264524484154e+03
-2.6376852460893647e+00 5.6053664746806753e+00 1.6938947304704247e+03
-2.7372126109223887e+00 5.8168728911401333e+00 1.5766260604827605e+03
-2.8367399757554130e+00 6.0283793075995922e+00 1.4630136982319361e+03
-2.9362673405884374e+00 6.2398857240590502e+00 1.3443703352427647e+03
-3.0357947054214613e+00 6.4513921405185082e+00 1.2290424565508995e+03
-3.1353220702544853e+00 6.6628985569779671e+00 1.1098379160069376e+03
-3.2348494350875092e+00 6.8744049734374251e+00 9.9343477764016336e+02
-3.3343767999205336e+00 7.0859113898968840e+00 8.7412157780708424e+02
-3.4339041647535580e+00 7.2974178063563420e+00 7.5696552938140803e+02
-3.5334315295865824e+00 7.5089242228158009e+00 6.3783721209751832e+02
-3.6329588944196058e+00 7.7204306392752580e+00 5.2011575591906899e+02
-3.7324862592526302e+00 7.9319370557347169e+00 4.0142798484513025e+02
-3.8320136240856546e+00 8.1434434721941749e+00 2.8336824052269026e+02
-4.2577929156507270e+00 9.0482705246601949e+00 2.8300000000000000e+02
-2.6587746624375197e+00 4.1895584844747917e+00 2.2830000000000000e+03
-2.7789783564582669e+00 4.3789691980883099e+00 2.1721290234116373e+03
-2.8991820504790144e+00 4.5683799117018298e+00 2.0624843987566032e+03
-3.0193857444997616e+00 4.7577906253153488e+00 1.9629855755189474e+03
-3.1395894385205092e+00 4.9472013389288678e+00 1.8536509182104960e+03
-3.2597931325412564e+00 5.1366120525423868e+00 1.7487872859946431e+03
-3.3799968265620035e+00 5.3260227661559050e+00 1.6365612454427092e+03
-3.5002005205827511e+00 5.5154334797694249e+00 1.5283383538851288e+03
-3.6204042146034987e+00 5.7048441933829439e+00 1.4145827729898731e+03
-3.7406079086242459e+00 5.8942549069964629e+00 1.3044594067347912e+03
-3.8608116026449930e+00 6.0836656206099819e+00 1.1900364980134921e+03
-3.9810152966657406e+00 6.2730763342235010e+00 1.0787502397204601e+03
-4.1012189906864878e+00 6.4624870478370200e+00 9.6414031572806550e+02
-4.2214226847072354e+00 6.6518977614505399e+00 8.5205207019335023e+02
-4.3416263787279821e+00 6.8413084750640580e+00 7.3754333787957103e+02
-4.4618300727487297e+00 7.0307191886775771e+00 6.2482457069741679e+02
-4.5820337667694773e+00 7.2201299022910970e+00 5.1059478415510040e+02
-4.7022374607902249e+00 7.4095406159046160e+00 3.9728530627967211e+02
-4.8224411548109716e+00 7.5989513295181350e+00 2.8337396936000818e+02
-5.3582679497899690e+00 8.4432792550201494e+00 2.8300000000000000e+02
-3.2024034289942604e+00 3.8710407678937635e+00 2.2830000000000000e+03
-3.3432041222578128e+00 4.0412395688431157e+00 2.1744458019803797e+03
-3.4840048155213656e+00 4.2114383697924680e+00 2.0744708359556644e+03
-3.6248055087849185e+00 4.3816371707418202e+00 1.9609730711369680e+03
-3.7656062020484713e+00 4.5518359716911725e+00 1.8537196227061136e+03
-3.9064068953120232e+00 4.7220347726405247e+00 1.7394855687083980e+03
-4.0472075885755761e+00 4.8922335735898770e+00 1.6306137096846228e+03
-4.1880082818391289e+00 5.0624323745392292e+00 1.5164061790154649e+03
-4.3288089751026817e+00 5.2326311754885815e+00 1.4067054479531328e+03
-4.4696096683662336e+00 5.4028299764379337e+00 1.2926646697426768e+03
-4.6104103616297865e+00 5.5730287773872860e+00 1.1823804253859516e+03
-4.7512110548933393e+00 5.7432275783366382e+00 1.0685753548858825e+03
-4.8920117481568912e+00 5.9134263792859896e+00 9.5780112749902298e+02
-5.0328124414204449e+00 6.0836251802353427e+00 8.4429823533923843e+02
-5.1736131346839969e+00 6.2538239811846941e+00 7.3306227422285690e+02
-5.3144138279475506e+00 6.4240227821340472e+00 6.1993130141680285e+02
-5.4552145212111025e+00 6.5942215830833986e+00 5.0823514010195339e+02
-5.5960152144746544e+00 6.7644203840327499e+00 3.9555619310666259e+02
-5.7368159077382082e+00 6.9346191849821031e+00 2.8338465871913775e+02
-6.3742398974868975e+00 7.7051324277578921e+00 2.8300000000000000e+02
-3.7387794026283339e+00 3.5109475545309889e+00 2.2830000000000000e+03
-3.8955537495263544e+00 3.6581684655769449e+00 2.1862878564660809e+03
-4.0523280964243753e+00 3.8053893766229008e+00 2.0625046787504843e+03
-4.2091024433223954e+00 3.9526102876688567e+00 1.9497420244341076e+03
-4.3658767902204163e+00 4.0998311987148126e+00 1.8315213662370220e+03
-4.5226511371184372e+00 4.2470521097607685e+00 1.7209863966161722e+03
-4.6794254840164573e+00 4.3942730208067244e+00 1.6059165591058581e+03
-4.8361998309144782e+00 4.5414939318526804e+00 1.4966678140177451e+03
-4.9929741778124992e+00 4.6887148428986372e+00 1.3833359528801450e+03
-5.1497485247105192e+00 4.8359357539445931e+00 1.2745943734519371e+03
-5.3065228716085402e+00 4.9831566649905490e+00 1.1623033851072098e+03
-5.4632972185065602e+00 5.1303775760365049e+00 1.0536582296049905e+03
-5.6200715654045812e+00 5.2775984870824608e+00 9.4208381811033144e+02
-5.7768459123026021e+00 5.4248193981284167e+00 8.3329875038838793e+02
-5.9336202592006222e+00 5.5720403091743727e+00 7.2229524933936466e+02
-6.0903946060986440e+00 5.7192612202203295e+00 6.1321601953359766e+02
-6.2471689529966641e+00 5.8664821312662845e+00 5.0273122077522959e+02
-6.4039432998946841e+00 6.0137030423122395e+00 3.9326948677409212e+02
-6.5607176467927051e+00 6.1609239533581963e+00 2.8339745966841974e+02
-7.2896862742141169e+00 6.8454710592868846e+00 2.8300000000000000e+02
-4.2737666663614000e+00 3.1050732378832562e+00 2.2830000000000000e+03
-4.4408436820843509e+00 3.2264617952582006e+00 2.1233237916306266e+03
-4.6079206978073026e+00 3.3478503526331456e+00 2.0062964675190174e+03
-4.7749977135302544e+00 3.4692389100080900e+00 1.8875455124969953e+03
-4.9420747292532061e+00 3.5906274673830350e+00 1.7790557891936185e+03
-5.1091517449761570e+00 3.7120160247579794e+00 1.6663654716277131e+03
-5.2762287606991078e+00 3.8334045821329235e+00 1.5603502383534637e+03
-5.4433057764220605e+00 3.9547931395078684e+00 1.4501415074154468e+03
-5.6103827921450122e+00 4.0761816968828137e+00 1.3450911078103811e+03
-5.7774598078679631e+00 4.1975702542577578e+00 1.2362871619955029e+03
-5.9445368235909140e+00 4.3189588116327018e+00 1.1316100159342138e+03
-6.1116138393138657e+00 4.4403473690076467e+00 1.0237395674442815e+03
-6.2786908550368175e+00 4.5617359263825916e+00 9.1911433810326037e+02
-6.4457678707597692e+00 4.6831244837575365e+00 8.1194239830951551e+02
-6.6128448864827201e+00 4.8045130411324806e+00 7.0715020771852414e+02
-6.7799219022056709e+00 4.9259015985074255e+00 6.0054446252938806e+02
-6.9469989179286236e+00 5.0472901558823704e+00 4.9539692375867730e+02
-7.1140759336515753e+00 5.1686787132573144e+00 3.8922841535809022e+02
-7.2811529493745262e+00 5.2900672706322593e+00 2.8340356907839629e+02
-8.0901699437494727e+00 5.8778525229247327e+00 2.8300000000000000e+02
-4.4173374816857409e+00 2.4284518308622309e+00 2.2830000000000000e+03
-4.6100831838362426e+00 2.5344146773096310e+00 2.2044554954759146e+03
-4.8028288859867443e+00 2.6403775237570319e+00 2.0899204174428883e+03
-4.9955745881372460e+00 2.7463403702044320e+00 1.9802282410584735e+03
-5.1883202902877477e+00 2.8523032166518321e+00 1.8629879813062630e+03
-5.3810659924382493e+00 2.9582660630992326e+00 1.7516217347497470e+03
-5.5738116945887519e+00 3.0642289095466331e+00 1.6350099473480077e+03
-5.7665573967392527e+00 3.1701917559940331e+00 1.5236344908494473e+03
-5.9593030988897544e+00 3.2761546024414336e+00 1.4079715777944657e+03
-6.1520488010402570e+00 3.3821174488888341e+00 1.2967387741450641e+03
-6.3447945031907587e+00 3.4880802953362342e+00 1.1819235683965117e+03