variables="x","y","T"
zone t="Temperature" n=1000 e=950 et=quadrilateral f=fepoint
6.0000000000000000e+00 0.0000000000000000e+00 1.0022830000000000e+06
6.1875000000000000e+00 0.0000000000000000e+00 1.0021476743487837e+06
6.3750000000000000e+00 0.0000000000000000e+00 1.0020152078597486e+06
6.5625000000000000e+00 0.0000000000000000e+00 1.0018850415029152e+06
6.7500000000000000e+00 0.0000000000000000e+00 1.0017567466943704e+06
6.9375000000000000e+00 0.0000000000000000e+00 1.0016299848351061e+06
7.1250000000000000e+00 0.0000000000000000e+00 1.0015044833609407e+06
7.3125000000000000e+00 0.0000000000000000e+00 1.0013800187528514e+06
7.5000000000000000e+00 0.0000000000000000e+00 1.0012564051876486e+06
7.6875000000000000e+00 0.0000000000000000e+00 1.0011334859792367e+06
7.8750000000000000e+00 0.0000000000000000e+00 1.0010111275060218e+06
8.0625000000000000e+00 0.0000000000000000e+00 1.0008892144672374e+06
8.2500000000000000e+00 0.0000000000000000e+00 1.0007676463569250e+06
8.4375000000000000e+00 0.0000000000000000e+00 1.0006463346467569e+06
8.6250000000000000e+00 0.0000000000000000e+00 1.0005252006082420e+06
8.8125000000000000e+00 0.0000000000000000e+00 1.0004041735425837e+06
9.0000000000000000e+00 0.0000000000000000e+00 1.0002831893637638e+06
9.3333333333333339e+00 0.0000000000000000e+00 1.0002831259011711e+06
9.6666666666666661e+00 0.0000000000000000e+00 1.0002830628544095e+06
1.0000000000000000e+01 0.0000000000000000e+00 1.0002830000000000e+06
5.9166541040578391e+00 7.4744723544624192e-01 1.0022830000000000e+06
6.1049277420436177e+00 7.7123172711077292e-01 1.0021492205159502e+06
6.2932013800293971e+00 7.9501621877530393e-01 1.0020177642493582e+06
6.4814750180151757e+00 8.1880071043983493e-01 1.0018882311951262e+06
6.6697486560009542e+00 8.4258520210436594e-01 1.0017602938677602e+06
6.8580222939867337e+00 8.6636969376889705e-01 1.0016336833169617e+06
7.0462959319725122e+00 8.9015418543342806e-01 1.0015081759587330e+06
7.2345695699582908e+00 9.1393867709795906e-01 1.0013835843666065e+06
7.4228432079440703e+00 9.3772316876249018e-01 1.0012597496479314e+06
7.6111168459298488e+00 9.6150766042702118e-01 1.0011365359623970e+06
7.7993904839156274e+00 9.8529215209155219e-01 1.0010138260133783e+06
7.9876641219014068e+00 1.0090766437560832e+00 1.0008915176874556e+06
8.1759377598871872e+00 1.0328611354206143e+00 1.0007695212845131e+06
8.3642113978729640e+00 1.0566456270851452e+00 1.0006477573795666e+06
8.5524850358587443e+00 1.0804301187496763e+00 1.0005261550537201e+06
8.7407586738445211e+00 1.1042146104142072e+00 1.0004046504851964e+06
8.9290323118303014e+00 1.1279991020787383e+00 1.0002831857781528e+06
9.2597372122684600e+00 1.1697768466001732e+00 1.0002831235643795e+06
9.5904421127066186e+00 1.2115545911216077e+00 1.0002830617008002e+06
9.9211470131447790e+00 1.2533323356430426e+00 1.0002830000000000e+06
5.6765725352523102e+00 1.4574961035147826e+00 1.0022830000000000e+06
5.8666147799338955e+00 1.5062906585753397e+00 1.0021531071836145e+06
6.0566570246154816e+00 1.5550852136358966e+00 1.0020242789521159e+06
6.2466992692970669e+00 1.6038797686964534e+00 1.0018964392281445e+06
6.4367415139786530e+00 1.6526743237570103e+00 1.0017694900319439e+06
6.6267837586602383e+00 1.7014688788175671e+00 1.0016433270161924e+06
6.8168260033418235e+00 1.7502634338781242e+00 1.0015178483228442e+06
7.0068682480234097e+00 1.7990579889386811e+00 1.0013929579308117e+06
7.1969104927049949e+00 1.8478525439992379e+00 1.0012685673881375e+06
7.3869527373865802e+00 1.8966470990597948e+00 1.0011445959391142e+06
7.5769949820681664e+00 1.9454416541203516e+00 1.0010209703691853e+06
7.7670372267497507e+00 1.9942362091809085e+00 1.0008976243902658e+06
7.9570794714313378e+00 2.0430307642414656e+00 1.0007744980552860e+06
8.1471217161129239e+00 2.0918253193020226e+00 1.0006515370784212e+06
8.3371639607945092e+00 2.1406198743625793e+00 1.0005286922398987e+06
8.5272062054760926e+00 2.1894144294231359e+00 1.0004059188110970e+06
8.7172484501576797e+00 2.2382089844836930e+00 1.0002831760583160e+06
9.0401095038672246e+00 2.3211056135386450e+00 1.0002831172082566e+06
9.3629705575767659e+00 2.4040022425935961e+00 1.0002830585572370e+06
9.6858316112863108e+00 2.4868988716485481e+00 1.0002830000000000e+06
5.3060320010875346e+00 2.1008066848075764e+00 1.0022830000000000e+06
5.4974042743317053e+00 2.1765763278922341e+00 1.0021577742946539e+06
5.6887765475758751e+00 2.2523459709768918e+00 1.0020322591191299e+06
5.8801488208200459e+00 2.3281156140615495e+00 1.0019066517486720e+06
6.0715210940642166e+00 2.4038852571462077e+00 1.0017810731594773e+06
6.2628933673083873e+00 2.4796549002308654e+00 1.0016555933268103e+06
6.4542656405525571e+00 2.5554245433155232e+00 1.0015302479736988e+06
6.6456379137967279e+00 2.6311941864001813e+00 1.0014050508403272e+06
6.8370101870408986e+00 2.7069638294848390e+00 1.0012800014053937e+06
7.0283824602850684e+00 2.7827334725694968e+00 1.0011550903962967e+06
7.2197547335292391e+00 2.8585031156541545e+00 1.0010303032339725e+06
7.4111270067734099e+00 2.9342727587388127e+00 1.0009056224840325e+06
7.6024992800175806e+00 3.0100424018234704e+00 1.0007810293885808e+06
7.7938715532617504e+00 3.0858120449081281e+00 1.0006565049480643e+06
7.9852438265059211e+00 3.1615816879927863e+00 1.0005320305953046e+06
8.1766160997500918e+00 3.2373513310774440e+00 1.0004075886624382e+06
8.3679883729942617e+00 3.3131209741621017e+00 1.0002831626700768e+06
8.6779138682903465e+00 3.4358291583903280e+00 1.0002831084073206e+06
8.9878393635864295e+00 3.5585373426185534e+00 1.0002830541919469e+06
9.2977648588825126e+00 3.6812455268467796e+00 1.0002830000000000e+06
4.8391847856871282e+00 2.6603643487519721e+00 1.0022830000000000e+06
5.0296582441063560e+00 2.7650780186371886e+00 1.0021619574004279e+06
5.2201317025255838e+00 2.8697916885224055e+00 1.0020395550399336e+06
5.4106051609448116e+00 2.9745053584076215e+00 1.0019161437463571e+06
5.6010786193640394e+00 3.0792190282928384e+00 1.0017919872578759e+06
5.7915520777832672e+00 3.1839326981780554e+00 1.0016672819606171e+06
5.9820255362024941e+00 3.2886463680632714e+00 1.0015421737340096e+06
6.1724989946217219e+00 3.3933600379484883e+00 1.0014167703486278e+06
6.3629724530409506e+00 3.4980737078337047e+00 1.0012911515125416e+06
6.5534459114601784e+00 3.6027873777189217e+00 1.0011653760831606e+06
6.7439193698794062e+00 3.7075010476041386e+00 1.0010394876971339e+06
6.9343928282986331e+00 3.8122147174893546e+00 1.0009135188023880e+06
7.1248662867178600e+00 3.9169283873745711e+00 1.0007874937622306e+06
7.3153397451370887e+00 4.0216420572597880e+00 1.0006614311020400e+06
7.5058132035563165e+00 4.1263557271450049e+00 1.0005353452313340e+06
7.6962866619755452e+00 4.2310693970302218e+00 1.0004092477105532e+06
7.8867601203947721e+00 4.3357830669154378e+00 1.0002831482215851e+06
8.1788623470760609e+00 4.4963676249493432e+00 1.0002830988591807e+06
8.4709645737573478e+00 4.6569521829832476e+00 1.0002830494419395e+06
8.7630668004386365e+00 4.8175367410171530e+00 1.0002830000000000e+06
4.3094986869449645e+00 3.1310340704487776e+00 1.0022830000000000e+06
4.4952270783468125e+00 3.2659736454602455e+00 1.0021650876812262e+06
4.6809554697486595e+00 3.4009132204717130e+00 1.0020451087929989e+06
4.8666838611505074e+00 3.5358527954831804e+00 1.0019234770166674e+06
5.0524122525523554e+00 3.6707923704946479e+00 1.0018005267118264e+06
5.2381406439542033e+00 3.8057319455061154e+00 1.0016765267295137e+06
5.4238690353560504e+00 3.9406715205175824e+00 1.0015516922718543e+06
5.6095974267578983e+00 4.0756110955290508e+00 1.0014261958630962e+06
5.7953258181597453e+00 4.2105506705405178e+00 1.0013001759463154e+06
5.9810542095615942e+00 4.3454902455519857e+00 1.0011737442471624e+06
6.1667826009634412e+00 4.4804298205634527e+00 1.0010469914359783e+06
6.3525109923652892e+00 4.6153693955749207e+00 1.0009199917778303e+06
6.5382393837671362e+00 4.7503089705863877e+00 1.0007928066950701e+06
6.7239677751689850e+00 4.8852485455978565e+00 1.0006654876322602e+06
6.9096961665708321e+00 5.0201881206093235e+00 1.0005380782624605e+06
7.0954245579726782e+00 5.1551276956207905e+00 1.0004106162438636e+06
7.2811529493745271e+00 5.2900672706322585e+00 1.0002831345845355e+06
7.5508252808328438e+00 5.4859956880630829e+00 1.0002830898085043e+06
7.8204976122911578e+00 5.6819241054939065e+00 1.0002830449283818e+06
8.0901699437494745e+00 5.8778525229247318e+00 1.0002830000000000e+06
3.7443637871760540e+00 3.5161916406778211e+00 1.0022830000000000e+06
3.9203859034020949e+00 3.6814874102203445e+00 1.0021671185284689e+06
4.0964080196281358e+00 3.8467831797628684e+00 1.0020487647324358e+06
4.2724301358541759e+00 4.0120789493053923e+00 1.0019283667715942e+06
4.4484522520802168e+00 4.1773747188479149e+00 1.0018062853050136e+06
4.6244743683062568e+00 4.3426704883904392e+00 1.0016828219454288e+06
4.8004964845322977e+00 4.5079662579329627e+00 1.0015582283666470e+06
4.9765186007583386e+00 4.6732620274754861e+00 1.0014327141244586e+06
5.1525407169843795e+00 4.8385577970180105e+00 1.0013064541066781e+06
5.3285628332104196e+00 5.0038535665605330e+00 1.0011795945846796e+06
5.5045849494364605e+00 5.1691493361030565e+00 1.0010522585374516e+06
5.6806070656625005e+00 5.3344451056455808e+00 1.0009245499128972e+06
5.8566291818885414e+00 5.4997408751881034e+00 1.0007965572240553e+06
6.0326512981145823e+00 5.6650366447306277e+00 1.0006683564169873e+06
6.2086734143406224e+00 5.8303324142731512e+00 1.0005400132372915e+06
6.3846955305666642e+00 5.9956281838156755e+00 1.0004115851204037e+06
6.5607176467927042e+00 6.1609239533581981e+00 1.0002831227321355e+06
6.8037071892665084e+00 6.3891063220010951e+00 1.0002830819181534e+06
7.0466967317403109e+00 6.6172886906439903e+00 1.0002830409865566e+06
7.2896862742141160e+00 6.8454710592868873e+00 1.0002830000000000e+06
3.1633096560581078e+00 3.8237845142198927e+00 1.0022830000000000e+06
3.3241537967881136e+00 4.0182116811425308e+00 1.0021682499851328e+06
3.4849979375181199e+00 4.2126388480651693e+00 1.0020508309399475e+06
3.6458420782481267e+00 4.4070660149878078e+00 1.0019311656689588e+06
3.8066862189781325e+00 4.6014931819104454e+00 1.0018096183565133e+06
3.9675303597081388e+00 4.7959203488330839e+00 1.0016865010873089e+06
4.1283745004381451e+00 4.9903475157557216e+00 1.0015620801524313e+06
4.2892186411681505e+00 5.1847746826783601e+00 1.0014365826946662e+06
4.4500627818981568e+00 5.3792018496009977e+00 1.0013102023611278e+06
4.6109069226281632e+00 5.5736290165236353e+00 1.0011831046502884e+06
4.7717510633581695e+00 5.7680561834462747e+00 1.0010554313358816e+06
4.9325952040881758e+00 5.9624833503689123e+00 1.0009273043842991e+06
5.0934393448181821e+00 6.1569105172915508e+00 1.0007988291670115e+06
5.2542834855481884e+00 6.3513376842141893e+00 1.0006700972058385e+06
5.4151276262781947e+00 6.5457648511368269e+00 1.0005411884191701e+06
5.5759717670082010e+00 6.7401920180594654e+00 1.0004121730044351e+06
5.7368159077382064e+00 6.9346191849821031e+00 1.0002831129799421e+06
5.9492905709877704e+00 7.1914569325740336e+00 1.0002830754129495e+06
6.1617652342373326e+00 7.4482946801659624e+00 1.0002830377329722e+06
6.3742398974868966e+00 7.7051324277578921e+00 1.0002830000000000e+06
2.5786033580097927e+00 4.0632287230919086e+00 1.0022830000000000e+06
2.7188432203098665e+00 4.2842113859935482e+00 1.0021687474911313e+06
2.8590830826099398e+00 4.5051940488951869e+00 1.0020517592930566e+06
2.9993229449100132e+00 4.7261767117968265e+00 1.0019324467903159e+06
3.1395628072100865e+00 4.9471593746984652e+00 1.0018111685852390e+06
3.2798026695101603e+00 5.1681420376001048e+00 1.0016882356630514e+06
3.4200425318102341e+00 5.3891247005017444e+00 1.0015639171720275e+06
3.5602823941103070e+00 5.6101073634033831e+00 1.0014384455787449e+06
3.7005222564103812e+00 5.8310900263050227e+00 1.0013120218247455e+06
3.8407621187104541e+00 6.0520726892066614e+00 1.0011848196808908e+06
3.9810019810105279e+00 6.2730553521083010e+00 1.0010569897707381e+06
4.1212418433106013e+00 6.4940380150099397e+00 1.0009286629329897e+06
4.2614817056106746e+00 6.7150206779115793e+00 1.0007999531851413e+06
4.4017215679107489e+00 6.9360033408132189e+00 1.0006709601929870e+06
4.5419614302108222e+00 7.1569860037148576e+00 1.0005417713916649e+06
4.6822012925108947e+00 7.3779686666164954e+00 1.0004124637535670e+06
4.8224411548109689e+00 7.5989513295181359e+00 1.0002831052859749e+06
5.0010500864706344e+00 7.8803939713521416e+00 1.0002830702744018e+06
5.1796590181302999e+00 8.1618366131861446e+00 1.0002830351611030e+06
5.3582679497899655e+00 8.4432792550201512e+00 1.0002830000000000e+06
1.9968303170242696e+00 4.2434804271163635e+00 1.0022830000000000e+06
2.1115292737156062e+00 4.4872281174337267e+00 1.0021688570849028e+06
2.2262282304069427e+00 4.7309758077510908e+00 1.0020519830561101e+06
2.3409271870982793e+00 4.9747234980684540e+00 1.0019327780468774e+06
2.4556261437896159e+00 5.2184711883858172e+00 1.0018115921885470e+06
2.5703251004809524e+00 5.4622188787031805e+00 1.0016887310360443e+06
2.6850240571722885e+00 5.7059665690205428e+00 1.0015644606091251e+06
2.7997230138636251e+00 5.9497142593379069e+00 1.0014390124840625e+06
2.9144219705549617e+00 6.1934619496552701e+00 1.0013125881564679e+06
3.0291209272462982e+00 6.4372096399726333e+00 1.0011853631743441e+06
3.1438198839376348e+00 6.6809573302899965e+00 1.0010574906230716e+06
3.2585188406289709e+00 6.9247050206073597e+00 1.0009291042641860e+06
3.3732177973203075e+00 7.1684527109247229e+00 1.0008003211796390e+06
3.4879167540116440e+00 7.4122004012420861e+00 1.0006712440844447e+06
3.6026157107029806e+00 7.6559480915594493e+00 1.0005419632776199e+06
3.7173146673943172e+00 7.8996957818768125e+00 1.0004125583220000e+06
3.8320136240856542e+00 8.1434434721941766e+00 1.0002830994653009e+06
3.9739400546073451e+00 8.4450524896828494e+00 1.0002830663842000e+06
4.1158664851290352e+00 8.7466615071715221e+00 1.0002830332132374e+06
4.2577929156507270e+00 9.0482705246601967e+00 1.0002830000000000e+06
1.4205669389937772e+00 4.3720554815965906e+00 1.0022830000000000e+06
1.5056035646425741e+00 4.6337713044128268e+00 1.0021687756498464e+06
1.5906401902913709e+00 4.8954871272290639e+00 1.0020518548921379e+06
1.6756768159401678e+00 5.1572029500453009e+00 1.0019326287631997e+06
1.7607134415889647e+00 5.4189187728615380e+00 1.0018114395750326e+06
1.8457500672377616e+00 5.6806345956777751e+00 1.0016885864112127e+06
1.9307866928865585e+00 5.9423504184940121e+00 1.0015643304828255e+06
2.0158233185353551e+00 6.2040662413102492e+00 1.0014388997878272e+06
2.1008599441841520e+00 6.4657820641264863e+00 1.0013124935007426e+06
2.1858965698329489e+00 6.7274978869427233e+00 1.0011852856913244e+06
2.2709331954817458e+00 6.9892137097589604e+00 1.0010574286983848e+06
2.3559698211305427e+00 7.2509295325751966e+00 1.0009290559864792e+06
2.4410064467793395e+00 7.5126453553914336e+00 1.0008002846667430e+06
2.5260430724281364e+00 7.7743611782076698e+00 1.0006712176379121e+06
2.6110796980769333e+00 8.0360770010239087e+00 1.0005419454471180e+06
2.6961163237257306e+00 8.2977928238401457e+00 1.0004125478759833e+06
2.7811529493745271e+00 8.5595086466563810e+00 1.0002830953092824e+06
2.8841586141661764e+00 8.8765274854214340e+00 1.0002830636054708e+06
2.9871642789578252e+00 9.1935463241864834e+00 1.0002830318215801e+06
3.0901699437494745e+00 9.5105651629515346e+00 1.0002830000000000e+06
8.4976798554313437e-01 4.4546397815698411e+00 1.0022830000000000e+06
9.0205947590115854e-01 4.7287613737566137e+00 1.0021686457311446e+06
9.5435096625918270e-01 5.0028829659433862e+00 1.0020516322247825e+06
1.0066424566172067e+00 5.2770045581301588e+00 1.0019323443945033e+06
1.0589339469752310e+00 5.5511261503169305e+00 1.0018111186624101e+06
1.1112254373332551e+00 5.8252477425037030e+00 1.0016882489790628e+06
1.1635169276912793e+00 6.0993693346904756e+00 1.0015639921247183e+06
1.2158084180493034e+00 6.3734909268772473e+00 1.0014385725622819e+06
1.2680999084073274e+00 6.6476125190640198e+00 1.0013121865872897e+06
1.3203913987653517e+00 6.9217341112507924e+00 1.0011850060574239e+06
1.3726828891233758e+00 7.1958557034375650e+00 1.0010571815647706e+06
1.4249743794814000e+00 7.4699772956243367e+00 1.0009288452315312e+06
1.4772658698394241e+00 7.7440988878111092e+00 1.0008001130947592e+06
1.5295573601974481e+00 8.0182204799978809e+00 1.0006710871829757e+06
1.5818488505554724e+00 8.2923420721846544e+00 1.0005418572938613e+06
1.6341403409134965e+00 8.5664636643714260e+00 1.0004125025338264e+06
1.6864318312715207e+00 8.8405852565581977e+00 1.0002830926412314e+06
1.7488922694667624e+00 9.1680143401344285e+00 1.0002830618212381e+06
1.8113527076620035e+00 9.4954434237106575e+00 1.0002830309278875e+06
1.8738131458572451e+00 9.8228725072868865e+00 1.0002830000000000e+06
2.8280134645670041e-01 4.4949986831615183e+00 1.0022830000000000e+06
3.0044592953839538e-01 4.7754513002048258e+00 1.0021685586051225e+06
3.1809051262009036e-01 5.0559039172481341e+00 1.0020514806268903e+06
3.3573509570178528e-01 5.3363565342914416e+00 1.0019321478849070e+06
3.5337967878348026e-01 5.6168091513347491e+00 1.0018108937415861e+06
3.7102426186517518e-01 5.8972617683780566e+00 1.0016880092767279e+06
3.8866884494687015e-01 6.1777143854213659e+00 1.0015637487887196e+06
4.0631342802856513e-01 6.4581670024646733e+00 1.0014383345779113e+06
4.2395801111026010e-01 6.7386196195079817e+00 1.0013119611616763e+06
4.4160259419195508e-01 7.0190722365512892e+00 1.0011847989020541e+06
4.5924717727365000e-01 7.2995248535945967e+00 1.0010569971706650e+06
4.7689176035534492e-01 7.5799774706379042e+00 1.0009286870670801e+06
4.9453634343703995e-01 7.8604300876812125e+00 1.0007999837749113e+06
5.1218092651873481e-01 8.1408827047245200e+00 1.0006709885872079e+06
5.2982550960042984e-01 8.4213353217678293e+00 1.0005417906575878e+06
5.4747009268212476e-01 8.7017879388111368e+00 1.0004124685089454e+06
5.6511467576381968e-01 8.9822405558544443e+00 1.0002830913382890e+06
5.8604484894025755e-01 9.3149161319972009e+00 1.0002830609498284e+06
6.0697502211669518e-01 9.6475917081399576e+00 1.0002830304913876e+06
6.2790519529313304e-01 9.9802672842827160e+00 1.0002830000000000e+06
-2.8280134645670085e-01 4.4949986831615183e+00 1.0022830000000000e+06
-3.0044592953839583e-01 4.7754513002048258e+00 1.0021685586051221e+06
-3.1809051262009086e-01 5.0559039172481341e+00 1.0020514806268913e+06
-3.3573509570178584e-01 5.3363565342914416e+00 1.0019321478849055e+06
-3.5337967878348081e-01 5.6168091513347491e+00 1.0018108937415874e+06
-3.7102426186517573e-01 5.8972617683780566e+00 1.0016880092767254e+06
-3.8866884494687076e-01 6.1777143854213659e+00 1.0015637487887214e+06
-4.0631342802856574e-01 6.4581670024646733e+00 1.0014383345779086e+06
-4.2395801111026077e-01 6.7386196195079817e+00 1.0013119611616771e+06
-4.4160259419195574e-01 7.0190722365512892e+00 1.0011847989020537e+06
-4.5924717727365072e-01 7.2995248535945967e+00 1.0010569971706634e+06
-4.7689176035534570e-01 7.5799774706379042e+00 1.0009286870670826e+06
-4.9453634343704067e-01 7.8604300876812125e+00 1.0007999837749078e+06
-5.1218092651873559e-01 8.1408827047245200e+00 1.0006709885872098e+06
-5.2982550960043073e-01 8.4213353217678293e+00 1.0005417906575861e+06
-5.4747009268212565e-01 8.7017879388111368e+00 1.0004124685089453e+06
-5.6511467576382057e-01 8.9822405558544443e+00 1.0002830913382894e+06
-5.8604484894025843e-01 9.3149161319972009e+00 1.0002830609498273e+06
-6.0697502211669618e-01 9.6475917081399576e+00 1.0002830304913883e+06
-6.2790519529313404e-01 9.9802672842827160e+00 1.0002830000000000e+06
-8.4976798554313582e-01 4.4546397815698411e+00 1.0022830000000000e+06
-9.0205947590116009e-01 4.7287613737566137e+00 1.0021686457311449e+06
-9.5435096625918425e-01 5.0028829659433853e+00 1.0020516322247816e+06
-1.0066424566172085e+00 5.2770045581301579e+00 1.0019323443945043e+06
-1.0589339469752328e+00 5.5511261503169305e+00 1.0018111186624083e+06
-1.1112254373332568e+00 5.8252477425037021e+00 1.0016882489790645e+06
-1.1635169276912811e+00 6.0993693346904747e+00 1.0015639921247155e+06
-1.2158084180493054e+00 6.3734909268772473e+00 1.0014385725622836e+06
-1.2680999084073297e+00 6.6476125190640190e+00 1.0013121865872884e+06
-1.3203913987653539e+00 6.9217341112507915e+00 1.0011850060574237e+06
-1.3726828891233780e+00 7.1958557034375641e+00 1.0010571815647723e+06
-1.4249743794814023e+00 7.4699772956243358e+00 1.0009288452315283e+06
-1.4772658698394265e+00 7.7440988878111083e+00 1.0008001130947622e+06
-1.5295573601974508e+00 8.0182204799978809e+00 1.0006710871829732e+06
-1.5818488505554749e+00 8.2923420721846526e+00 1.0005418572938627e+06
-1.6341403409134991e+00 8.5664636643714260e+00 1.0004125025338266e+06
-1.6864318312715234e+00 8.8405852565581977e+00 1.0002830926412317e+06
-1.7488922694667650e+00 9.1680143401344267e+00 1.0002830618212398e+06
-1.8113527076620066e+00 9.4954434237106558e+00 1.0002830309278875e+06
-1.8738131458572482e+00 9.8228725072868865e+00 1.0002830000000000e+06
-1.4205669389937778e+00 4.3720554815965906e+00 1.0022830000000000e+06
-1.5056035646425747e+00 4.6337713044128268e+00 1.0021687756498458e+06
-1.5906401902913716e+00 4.8954871272290639e+00 1.0020518548921387e+06
-1.6756768159401685e+00 5.1572029500453009e+00 1.0019326287631982e+06
-1.7607134415889654e+00 5.4189187728615380e+00 1.0018114395750337e+06
-1.8457500672377622e+00 5.6806345956777751e+00 1.0016885864112101e+06
-1.9307866928865591e+00 5.9423504184940121e+00 1.0015643304828274e+06
-2.0158233185353560e+00 6.2040662413102492e+00 1.0014388997878246e+06
-2.1008599441841529e+00 6.4657820641264863e+00 1.0013124935007435e+06
-2.1858965698329498e+00 6.7274978869427233e+00 1.0011852856913245e+06
-2.2709331954817467e+00 6.9892137097589604e+00 1.0010574286983830e+06
-2.3559698211305435e+00 7.2509295325751966e+00 1.0009290559864821e+06
-2.4410064467793404e+00 7.5126453553914336e+00 1.0008002846667402e+06
-2.5260430724281373e+00 7.7743611782076698e+00 1.0006712176379150e+06
-2.6110796980769342e+00 8.0360770010239087e+00 1.0005419454471171e+06
-2.6961163237257315e+00 8.2977928238401457e+00 1.0004125478759838e+06
-2.7811529493745279e+00 8.5595086466563810e+00 1.0002830953092835e+06
-2.8841586141661772e+00 8.8765274854214340e+00 1.0002830636054707e+06
-2.9871642789578261e+00 9.1935463241864834e+00 1.0002830318215813e+06
-3.0901699437494754e+00 9.5105651629515346e+00 1.0002830000000000e+06
-1.9968303170242703e+00 4.2434804271163635e+00 1.0022830000000000e+06
-2.1115292737156066e+00 4.4872281174337276e+00 1.0021688570849032e+06
-2.2262282304069432e+00 4.7309758077510908e+00 1.0020519830561090e+06
-2.3409271870982797e+00 4.9747234980684532e+00 1.0019327780468781e+06
-2.4556261437896163e+00 5.2184711883858164e+00 1.0018115921885450e+06
-2.5703251004809529e+00 5.4622188787031796e+00 1.0016887310360458e+06
-2.6850240571722894e+00 5.7059665690205437e+00 1.0015644606091221e+06
-2.7997230138636260e+00 5.9497142593379069e+00 1.0014390124840641e+06
-2.9144219705549625e+00 6.1934619496552701e+00 1.0013125881564660e+06
-3.0291209272462991e+00 6.4372096399726333e+00 1.0011853631743428e+06
-3.1438198839376352e+00 6.6809573302899956e+00 1.0010574906230723e+06
-3.2585188406289718e+00 6.9247050206073588e+00 1.0009291042641822e+06
-3.3732177973203084e+00 7.1684527109247229e+00 1.0008003211796412e+06
-3.4879167540116445e+00 7.4122004012420852e+00 1.0006712440844412e+06
-3.6026157107029815e+00 7.6559480915594484e+00 1.0005419632776210e+06
-3.7173146673943180e+00 7.8996957818768117e+00 1.0004125583220004e+06
-3.8320136240856546e+00 8.1434434721941749e+00 1.0002830994653002e+06
-3.9739400546073456e+00 8.4450524896828494e+00 1.0002830663842005e+06
-4.1158664851290361e+00 8.7466615071715204e+00 1.0002830332132363e+06
-4.2577929156507270e+00 9.0482705246601949e+00 1.0002830000000000e+06
-2.5786033580097940e+00 4.0632287230919077e+00 1.0022830000000000e+06
-2.7188432203098674e+00 4.2842113859935465e+00 1.0021687474911307e+06
-2.8590830826099412e+00 4.5051940488951860e+00 1.0020517592930569e+06
-2.9993229449100145e+00 4.7261767117968247e+00 1.0019324467903144e+06
-3.1395628072100883e+00 4.9471593746984643e+00 1.0018111685852399e+06
-3.2798026695101621e+00 5.1681420376001039e+00 1.0016882356630486e+06
-3.4200425318102359e+00 5.3891247005017426e+00 1.0015639171720290e+06
-3.5602823941103092e+00 5.6101073634033822e+00 1.0014384455787417e+06
-3.7005222564103830e+00 5.8310900263050209e+00 1.0013120218247453e+06
-3.8407621187104564e+00 6.0520726892066605e+00 1.0011848196808903e+06
-3.9810019810105302e+00 6.2730553521082992e+00 1.0010569897707358e+06
-4.1212418433106039e+00 6.4940380150099388e+00 1.0009286629329923e+06
-4.2614817056106773e+00 6.7150206779115784e+00 1.0007999531851383e+06
-4.4017215679107506e+00 6.9360033408132162e+00 1.0006709601929898e+06
-4.5419614302108249e+00 7.1569860037148567e+00 1.0005417713916635e+06
-4.6822012925108982e+00 7.3779686666164945e+00 1.0004124637535665e+06
-4.8224411548109716e+00 7.5989513295181350e+00 1.0002831052859760e+06
-5.0010500864706380e+00 7.8803939713521398e+00 1.0002830702744013e+06
-5.1796590181303026e+00 8.1618366131861446e+00 1.0002830351611043e+06
-5.3582679497899690e+00 8.4432792550201494e+00 1.0002830000000000e+06
-3.1633096560581078e+00 3.8237845142198923e+00 1.0022830000000000e+06
-3.3241537967881136e+00 4.0182116811425299e+00 1.0021682499851332e+06
-3.4849979375181199e+00 4.2126388480651684e+00 1.0020508309399468e+06
-3.6458420782481267e+00 4.4070660149878069e+00 1.0019311656689600e+06
-3.8066862189781325e+00 4.6014931819104445e+00 1.0018096183565118e+06
-3.9675303597081388e+00 4.7959203488330830e+00 1.0016865010873110e+06
-4.1283745004381451e+00 4.9903475157557216e+00 1.0015620801524289e+06
-4.2892186411681514e+00 5.1847746826783601e+00 1.0014365826946688e+06
-4.4500627818981577e+00 5.3792018496009977e+00 1.0013102023611274e+06
-4.6109069226281640e+00 5.5736290165236353e+00 1.0011831046502884e+06
-4.7717510633581703e+00 5.7680561834462738e+00 1.0010554313358829e+06
-4.9325952040881766e+00 5.9624833503689123e+00 1.0009273043842958e+06
-5.0934393448181829e+00 6.1569105172915508e+00 1.0007988291670143e+06
-5.2542834855481892e+00 6.3513376842141893e+00 1.0006700972058355e+06
-5.4151276262781955e+00 6.5457648511368269e+00 1.0005411884191715e+06
-5.5759717670082019e+00 6.7401920180594654e+00 1.0004121730044356e+06
-5.7368159077382082e+00 6.9346191849821031e+00 1.0002831129799414e+06
-5.9492905709877713e+00 7.1914569325740336e+00 1.0002830754129508e+06
-6.1617652342373335e+00 7.4482946801659624e+00 1.0002830377329713e+06
-6.3742398974868975e+00 7.7051324277578921e+00 1.0002830000000000e+06
-3.7443637871760544e+00 3.5161916406778198e+00 1.0022830000000000e+06
-3.9203859034020954e+00 3.6814874102203436e+00 1.0021671185284683e+06
-4.0964080196281358e+00 3.8467831797628671e+00 1.0020487647324365e+06
-4.2724301358541767e+00 4.0120789493053906e+00 1.0019283667715931e+06
-4.4484522520802168e+00 4.1773747188479140e+00 1.0018062853050155e+06
-4.6244743683062577e+00 4.3426704883904375e+00 1.0016828219454272e+06
-4.8004964845322986e+00 4.5079662579329609e+00 1.0015582283666498e+06
-4.9765186007583395e+00 4.6732620274754852e+00 1.0014327141244564e+06
-5.1525407169843804e+00 4.8385577970180087e+00 1.0013064541066792e+06
-5.3285628332104205e+00 5.0038535665605313e+00 1.0011795945846792e+06
-5.5045849494364614e+00 5.1691493361030556e+00 1.0010522585374501e+06
-5.6806070656625014e+00 5.3344451056455791e+00 1.0009245499128995e+06
-5.8566291818885423e+00 5.4997408751881016e+00 1.0007965572240517e+06
-6.0326512981145832e+00 5.6650366447306260e+00 1.0006683564169899e+06
-6.2086734143406233e+00 5.8303324142731494e+00 1.0005400132372897e+06
-6.3846955305666651e+00 5.9956281838156738e+00 1.0004115851204033e+06
-6.5607176467927051e+00 6.1609239533581963e+00 1.0002831227321364e+06
-6.8037071892665093e+00 6.3891063220010933e+00 1.0002830819181523e+06
-7.0466967317403126e+00 6.6172886906439885e+00 1.0002830409865574e+06
-7.2896862742141169e+00 6.8454710592868846e+00 1.0002830000000000e+06
-4.3094986869449636e+00 3.1310340704487785e+00 1.0022830000000000e+06
-4.4952270783468116e+00 3.2659736454602459e+00 1.0021650876812271e+06
-4.6809554697486595e+00 3.4009132204717134e+00 1.0020451087929986e+06
-4.8666838611505066e+00 3.5358527954831809e+00 1.0019234770166688e+06
-5.0524122525523545e+00 3.6707923704946488e+00 1.0018005267118249e+06
-5.2381406439542024e+00 3.8057319455061163e+00 1.0016765267295159e+06
-5.4238690353560495e+00 3.9406715205175833e+00 1.0015516922718518e+06
-5.6095974267578974e+00 4.0756110955290517e+00 1.0014261958630981e+06
-5.7953258181597445e+00 4.2105506705405187e+00 1.0013001759463135e+06
-5.9810542095615933e+00 4.3454902455519866e+00 1.0011737442471625e+06
-6.1667826009634403e+00 4.4804298205634536e+00 1.0010469914359788e+06
-6.3525109923652883e+00 4.6153693955749215e+00 1.0009199917778273e+06
-6.5382393837671353e+00 4.7503089705863886e+00 1.0007928066950730e+06
-6.7239677751689841e+00 4.8852485455978574e+00 1.0006654876322564e+06
-6.9096961665708303e+00 5.0201881206093244e+00 1.0005380782624610e+06
-7.0954245579726773e+00 5.1551276956207914e+00 1.0004106162438630e+06
-7.2811529493745262e+00 5.2900672706322593e+00 1.0002831345845348e+06
-7.5508252808328420e+00 5.4859956880630838e+00 1.0002830898085057e+06
-7.8204976122911569e+00 5.6819241054939074e+00 1.0002830449283811e+06
-8.0901699437494727e+00 5.8778525229247327e+00 1.0002830000000000e+06
-4.8391847856871291e+00 2.6603643487519717e+00 1.0022830000000000e+06
-5.0296582441063569e+00 2.7650780186371886e+00 1.0021619574004270e+06
-5.2201317025255838e+00 2.8697916885224046e+00 1.0020395550399341e+06
-5.4106051609448116e+00 2.9745053584076215e+00 1.0019161437463553e+06
-5.6010786193640403e+00 3.0792190282928380e+00 1.0017919872578769e+06
-5.7915520777832672e+00 3.1839326981780545e+00 1.0016672819606144e+06
-5.9820255362024950e+00 3.2886463680632714e+00 1.0015421737340116e+06
-6.1724989946217228e+00 3.3933600379484878e+00 1.0014167703486250e+06
-6.3629724530409506e+00 3.4980737078337043e+00 1.0012911515125427e+06
-6.5534459114601784e+00 3.6027873777189208e+00 1.0011653760831590e+06
-6.7439193698794062e+00 3.7075010476041377e+00 1.0010394876971327e+06