variables="x","y","T"
zone t="Temperature" n=1000 e=950 et=quadrilateral f=fepoint
4.7950939598809903e+00 0.0000000000000000e+00 1.0022830000000000e+06
5.0579005873884286e+00 0.0000000000000000e+00 1.0022164610526757e+06
5.3207072148958670e+00 0.0000000000000000e+00 1.0020996327779343e+06
5.5835138424033044e+00 0.0000000000000000e+00 1.0019872702522281e+06
5.8463204699107427e+00 0.0000000000000000e+00 1.0018620727164850e+06
6.1091270974181811e+00 0.0000000000000000e+00 1.0017373838536222e+06
6.3719337249256185e+00 0.0000000000000000e+00 1.0016078232527375e+06
6.6347403524330568e+00 0.0000000000000000e+00 1.0014779829067496e+06
6.8975469799404951e+00 0.0000000000000000e+00 1.0013464335789877e+06
7.1603536074479335e+00 0.0000000000000000e+00 1.0012144058512375e+06
7.4231602349553718e+00 0.0000000000000000e+00 1.0010819136529642e+06
7.6859668624628092e+00 0.0000000000000000e+00 1.0009489525398262e+06
7.9487734899702476e+00 0.0000000000000000e+00 1.0008159968841748e+06
8.2115801174776859e+00 0.0000000000000000e+00 1.0006826737320262e+06
8.4743867449851233e+00 0.0000000000000000e+00 1.0005495156224313e+06
8.7371933724925626e+00 0.0000000000000000e+00 1.0004161295882938e+06
9.0000000000000000e+00 0.0000000000000000e+00 1.0002831094399352e+06
9.3333333333333339e+00 0.0000000000000000e+00 1.0002830733530517e+06
9.6666666666666661e+00 0.0000000000000000e+00 1.0002830367354986e+06
1.0000000000000000e+01 0.0000000000000000e+00 1.0002830000000000e+06
4.7861938966606008e+00 6.0463690008769033e-01 1.0022830000000000e+06
5.0451212976087074e+00 6.3734703771213075e-01 1.0021681500641720e+06
5.3040486985568132e+00 6.7005717533657128e-01 1.0020736009201693e+06
5.5629760995049198e+00 7.0276731296101169e-01 1.0019578132657815e+06
5.8219035004530264e+00 7.3547745058545233e-01 1.0018411267582708e+06
6.0808309014011321e+00 7.6818758820989286e-01 1.0017163083871211e+06
6.3397583023492388e+00 8.0089772583433327e-01 1.0015907578386900e+06
6.5986857032973445e+00 8.3360786345877380e-01 1.0014622021697602e+06
6.8576131042454502e+00 8.6631800108321422e-01 1.0013329693583648e+06
7.1165405051935577e+00 8.9902813870765486e-01 1.0012027540442589e+06
7.3754679061416635e+00 9.3173827633209527e-01 1.0010719428295502e+06
7.6343953070897701e+00 9.6444841395653580e-01 1.0009409410891648e+06
7.8933227080378758e+00 9.9715855158097633e-01 1.0008094722765357e+06
8.1522501089859816e+00 1.0298686892054167e+00 1.0006781025479219e+06
8.4111775099340882e+00 1.0625788268298573e+00 1.0005464154675925e+06
8.6701049108821948e+00 1.0952889644542980e+00 1.0004149125398585e+06
8.9290323118303014e+00 1.1279991020787383e+00 1.0002831078146151e+06
9.2597372122684600e+00 1.1697768466001732e+00 1.0002830719947207e+06
9.5904421127066186e+00 1.2115545911216077e+00 1.0002830360761638e+06
9.9211470131447790e+00 1.2533323356430426e+00 1.0002830000000000e+06
4.7531792648717408e+00 1.2204090082238155e+00 1.0022830000000000e+06
5.0009335889521127e+00 1.2840215067400580e+00 1.0021939260339532e+06
5.2486879130324828e+00 1.3476340052563001e+00 1.0020711146286076e+06
5.4964422371128547e+00 1.4112465037725426e+00 1.0019506512076152e+06
5.7441965611932257e+00 1.4748590022887851e+00 1.0018230298520663e+06
5.9919508852735968e+00 1.5384715008050271e+00 1.0016972076324164e+06
6.2397052093539678e+00 1.6020839993212697e+00 1.0015689661725988e+06
6.4874595334343397e+00 1.6656964978375119e+00 1.0014412406568571e+06
6.7352138575147098e+00 1.7293089963537542e+00 1.0013128241043630e+06
6.9829681815950817e+00 1.7929214948699967e+00 1.0011843134873168e+06
7.2307225056754527e+00 1.8565339933862390e+00 1.0010557729371840e+06
7.4784768297558237e+00 1.9201464919024813e+00 1.0009269436378754e+06
7.7262311538361947e+00 1.9837589904187236e+00 1.0007983033072016e+06
7.9739854779165666e+00 2.0473714889349659e+00 1.0006693727314627e+06
8.2217398019969377e+00 2.1109839874512084e+00 1.0005406690153377e+06
8.4694941260773096e+00 2.1745964859674509e+00 1.0004117510002151e+06
8.7172484501576797e+00 2.2382089844836930e+00 1.0002831105503271e+06
9.0401095038672246e+00 2.3211056135386450e+00 1.0002830739098110e+06
9.3629705575767659e+00 2.4040022425935961e+00 1.0002830369833444e+06
9.6858316112863108e+00 2.4868988716485481e+00 1.0002830000000000e+06
4.8103258398493498e+00 1.9045427314397796e+00 1.0022830000000000e+06
5.0326797481709065e+00 1.9925788716099246e+00 1.0021333117580527e+06
5.2550336564924640e+00 2.0806150117800697e+00 1.0019992003109396e+06
5.4773875648140207e+00 2.1686511519502152e+00 1.0018662825271250e+06
5.6997414731355782e+00 2.2566872921203602e+00 1.0017407391151201e+06
5.9220953814571349e+00 2.3447234322905053e+00 1.0016152452477627e+06
6.1444492897786915e+00 2.4327595724606503e+00 1.0014925549233425e+06
6.3668031981002482e+00 2.5207957126307954e+00 1.0013701082447568e+06
6.5891571064218057e+00 2.6088318528009404e+00 1.0012485588095257e+06
6.8115110147433624e+00 2.6968679929710855e+00 1.0011274193265552e+06
7.0338649230649199e+00 2.7849041331412310e+00 1.0010064123669250e+06
7.2562188313864766e+00 2.8729402733113760e+00 1.0008858253338134e+06
7.4785727397080342e+00 2.9609764134815211e+00 1.0007650942925486e+06
7.7009266480295908e+00 3.0490125536516661e+00 1.0006446990962328e+06
7.9232805563511484e+00 3.1370486938218116e+00 1.0005240898927238e+06
8.1456344646727050e+00 3.2250848339919567e+00 1.0004037059923802e+06
8.3679883729942617e+00 3.3131209741621017e+00 1.0002831154050089e+06
8.6779138682903465e+00 3.4358291583903280e+00 1.0002830766670066e+06
8.9878393635864295e+00 3.5585373426185534e+00 1.0002830382581993e+06
9.2977648588825126e+00 3.6812455268467796e+00 1.0002830000000000e+06
4.5648994235034008e+00 2.5095746948630890e+00 1.0022830000000000e+06
4.7725157170591119e+00 2.6237127181163613e+00 1.0021204966244525e+06
4.9801320106148221e+00 2.7378507413696327e+00 1.0019810304445646e+06
5.1877483041705332e+00 2.8519887646229050e+00 1.0018520433125842e+06
5.3953645977262434e+00 2.9661267878761763e+00 1.0017246806943314e+06
5.6029808912819545e+00 3.0802648111294482e+00 1.0016014400641443e+06
5.8105971848376647e+00 3.1944028343827200e+00 1.0014788226717119e+06
6.0182134783933758e+00 3.3085408576359918e+00 1.0013577741916711e+06
6.2258297719490869e+00 3.4226788808892636e+00 1.0012373270542728e+06
6.4334460655047971e+00 3.5368169041425355e+00 1.0011173247572425e+06
6.6410623590605073e+00 3.6509549273958068e+00 1.0009978789726904e+06
6.8486786526162184e+00 3.7650929506490787e+00 1.0008784169367680e+06
7.0562949461719295e+00 3.8792309739023509e+00 1.0007594014672501e+06
7.2639112397276397e+00 3.9933689971556223e+00 1.0006402104772602e+06
7.4715275332833517e+00 4.1075070204088950e+00 1.0005213148344631e+06
7.6791438268390619e+00 4.2216450436621660e+00 1.0004021839949013e+06
7.8867601203947721e+00 4.3357830669154378e+00 1.0002831155273002e+06
8.1788623470760609e+00 4.4963676249493432e+00 1.0002830765665962e+06
8.4709645737573478e+00 4.6569521829832476e+00 1.0002830381936894e+06
8.7630668004386365e+00 4.8175367410171530e+00 1.0002830000000000e+06
3.9812365876987816e+00 2.8925376950141093e+00 1.0022830000000000e+06
4.1874813603035159e+00 3.0423832934902437e+00 1.0021918693948118e+06
4.3937261329082498e+00 3.1922288919663777e+00 1.0020685567740898e+06
4.5999709055129845e+00 3.3420744904425126e+00 1.0019401910500826e+06
4.8062156781177183e+00 3.4919200889186466e+00 1.0018123146891381e+06
5.0124604507224522e+00 3.6417656873947806e+00 1.0016834691132187e+06
5.2187052233271869e+00 3.7916112858709154e+00 1.0015555734993658e+06
5.4249499959319207e+00 3.9414568843470494e+00 1.0014277087347457e+06
5.6311947685366546e+00 4.0913024828231839e+00 1.0013000942780701e+06
5.8374395411413884e+00 4.2411480812993183e+00 1.0011728091221645e+06
6.0436843137461222e+00 4.3909936797754519e+00 1.0010453932075901e+06
6.2499290863508570e+00 4.5408392782515872e+00 1.0009183553265800e+06
6.4561738589555908e+00 4.6906848767277207e+00 1.0007910693995561e+06
6.6624186315603255e+00 4.8405304752038560e+00 1.0006641127053166e+06
6.8686634041650594e+00 4.9903760736799896e+00 1.0005369390909487e+06
7.0749081767697932e+00 5.1402216721561240e+00 1.0004100392426280e+06
7.2811529493745271e+00 5.2900672706322585e+00 1.0002831096915478e+06
7.5508252808328438e+00 5.4859956880630829e+00 1.0002830734211522e+06
7.8204976122911578e+00 5.6819241054939065e+00 1.0002830367424748e+06
8.0901699437494745e+00 5.8778525229247318e+00 1.0002830000000000e+06
3.5197888996628359e+00 3.3053017840659771e+00 1.0022830000000000e+06
3.7098469463584527e+00 3.4837781696467411e+00 1.0021668953553386e+06
3.8999049930540695e+00 3.6622545552275048e+00 1.0020560472164582e+06
4.0899630397496862e+00 3.8407309408082684e+00 1.0019372780881977e+06
4.2800210864453030e+00 4.0192073263890320e+00 1.0018151204772037e+06
4.4700791331409198e+00 4.1976837119697965e+00 1.0016911360580919e+06
4.6601371798365374e+00 4.3761600975505610e+00 1.0015655440591665e+06
4.8501952265321533e+00 4.5546364831313237e+00 1.0014389367031791e+06
5.0402532732277701e+00 4.7331128687120883e+00 1.0013117763111978e+06
5.2303113199233868e+00 4.9115892542928510e+00 1.0011838319796753e+06
5.4203693666190036e+00 5.0900656398736155e+00 1.0010558270455567e+06
5.6104274133146195e+00 5.2685420254543791e+00 1.0009272075920738e+06
5.8004854600102371e+00 5.4470184110351436e+00 1.0007987185433417e+06
5.9905435067058530e+00 5.6254947966159063e+00 1.0006697891626492e+06
6.1806015534014707e+00 5.8039711821966709e+00 1.0005410336711103e+06
6.3706596000970883e+00 5.9824475677774354e+00 1.0004120163204868e+06
6.5607176467927042e+00 6.1609239533581981e+00 1.0002831058434641e+06
6.8037071892665084e+00 6.3891063220010951e+00 1.0002830705828356e+06
7.0466967317403109e+00 6.6172886906439903e+00 1.0002830353322515e+06
7.2896862742141160e+00 6.8454710592868873e+00 1.0002830000000000e+06
3.0523788930234002e+00 3.6896922564384371e+00 1.0022830000000000e+06
3.2201562064430753e+00 3.8925001894724161e+00 1.0021612828588967e+06
3.3879335198627509e+00 4.0953081225063954e+00 1.0020428545986796e+06
3.5557108332824261e+00 4.2981160555403743e+00 1.0019287003500679e+06
3.7234881467021017e+00 4.5009239885743533e+00 1.0018104304202152e+06
3.8912654601217769e+00 4.7037319216083331e+00 1.0016897118425141e+06
4.0590427735414529e+00 4.9065398546423120e+00 1.0015662838774035e+06
4.2268200869611281e+00 5.1093477876762909e+00 1.0014413650494793e+06
4.3945974003808033e+00 5.3121557207102699e+00 1.0013147427711227e+06
4.5623747138004784e+00 5.5149636537442497e+00 1.0011875093243120e+06
4.7301520272201545e+00 5.7177715867782286e+00 1.0010591528061916e+06
4.8979293406398297e+00 5.9205795198122075e+00 1.0009306473953311e+06
5.0657066540595048e+00 6.1233874528461865e+00 1.0008014015498335e+06
5.2334839674791809e+00 6.3261953858801663e+00 1.0006722013596770e+06
5.4012612808988560e+00 6.5290033189141452e+00 1.0005425398439280e+06
5.5690385943185312e+00 6.7318112519481241e+00 1.0004129458284004e+06
5.7368159077382064e+00 6.9346191849821031e+00 1.0002831034988029e+06
5.9492905709877704e+00 7.1914569325740336e+00 1.0002830689659350e+06
6.1617652342373326e+00 7.4482946801659624e+00 1.0002830344571100e+06
6.3742398974868966e+00 7.7051324277578921e+00 1.0002830000000000e+06
2.4760836077770194e+00 3.9016834460580956e+00 1.0022830000000000e+06
2.6227309544666411e+00 4.1327626887743483e+00 1.0022038306379309e+06
2.7693783011562632e+00 4.3638419314906010e+00 1.0021066109466676e+06
2.9160256478458848e+00 4.5949211742068528e+00 1.0019919216090143e+06
3.0626729945355069e+00 4.8260004169231054e+00 1.0018725696279119e+06
3.2093203412251285e+00 5.0570796596393581e+00 1.0017473187863815e+06
3.3559676879147502e+00 5.2881589023556108e+00 1.0016197802524788e+06
3.5026150346043723e+00 5.5192381450718635e+00 1.0014894084806738e+06
3.6492623812939939e+00 5.7503173877881153e+00 1.0013580415599220e+06
3.7959097279836160e+00 5.9813966305043680e+00 1.0012250445098566e+06
3.9425570746732377e+00 6.2124758732206207e+00 1.0010917128662232e+06
4.0892044213628598e+00 6.4435551159368734e+00 1.0009573675536140e+06
4.2358517680524814e+00 6.6746343586531260e+00 1.0008230009904219e+06
4.3824991147421040e+00 6.9057136013693787e+00 1.0006880260981421e+06
4.5291464614317256e+00 7.1367928440856305e+00 1.0005531682564737e+06
4.6757938081213464e+00 7.3678720868018823e+00 1.0004180478901522e+06
4.8224411548109689e+00 7.5989513295181359e+00 1.0002831021482850e+06
5.0010500864706344e+00 7.8803939713521416e+00 1.0002830684176984e+06
5.1796590181302999e+00 8.1618366131861446e+00 1.0002830343164913e+06
5.3582679497899655e+00 8.4432792550201512e+00 1.0002830000000000e+06
2.0401452032634251e+00 4.3355292458825669e+00 1.0022830000000000e+06
2.1521369795648142e+00 4.5735238850270425e+00 1.0021988522510108e+06
2.2641287558662033e+00 4.8115185241715182e+00 1.0020852210494542e+06
2.3761205321675929e+00 5.0495131633159938e+00 1.0019671061074781e+06
2.4881123084689820e+00 5.2875078024604694e+00 1.0018414400855044e+06
2.6001040847703711e+00 5.5255024416049450e+00 1.0017154932023427e+06
2.7120958610717611e+00 5.7634970807494206e+00 1.0015869135576211e+06
2.8240876373731503e+00 6.0014917198938962e+00 1.0014584026593772e+06
2.9360794136745394e+00 6.2394863590383718e+00 1.0013285084022011e+06
3.0480711899759290e+00 6.4774809981828474e+00 1.0011987905483140e+06
3.1600629662773181e+00 6.7154756373273230e+00 1.0010681797805607e+06
3.2720547425787077e+00 6.9534702764717986e+00 1.0009378000897925e+06
3.3840465188800968e+00 7.1914649156162742e+00 1.0008068251418833e+06
3.4960382951814859e+00 7.4294595547607498e+00 1.0006760823163554e+06
3.6080300714828755e+00 7.6674541939052254e+00 1.0005449893051040e+06
3.7200218477842646e+00 7.9054488330497010e+00 1.0004140865084849e+06
3.8320136240856542e+00 8.1434434721941766e+00 1.0002831063074328e+06
3.9739400546073451e+00 8.4450524896828494e+00 1.0002830711613032e+06
4.1158664851290352e+00 8.7466615071715221e+00 1.0002830356283901e+06
4.2577929156507270e+00 9.0482705246601967e+00 1.0002830000000000e+06
1.5871900757629942e+00 4.8848687665437094e+00 1.0022830000000000e+06
1.6618127553637152e+00 5.1145337590507518e+00 1.0021338719356667e+06
1.7364354349644358e+00 5.3441987515577933e+00 1.0020035665349123e+06
1.8110581145651568e+00 5.5738637440648358e+00 1.0018737912961965e+06
1.8856807941658773e+00 5.8035287365718773e+00 1.0017502201619545e+06
1.9603034737665983e+00 6.0331937290789197e+00 1.0016256188258585e+06
2.0349261533673189e+00 6.2628587215859612e+00 1.0015033633073430e+06
2.1095488329680396e+00 6.4925237140930037e+00 1.0013803660779191e+06
2.1841715125687609e+00 6.7221887066000461e+00 1.0012585372474439e+06
2.2587941921694816e+00 6.9518536991070876e+00 1.0011361431466793e+06
2.3334168717702020e+00 7.1815186916141291e+00 1.0010144724157294e+06
2.4080395513709232e+00 7.4111836841211716e+00 1.0008923495966783e+06
2.4826622309716440e+00 7.6408486766282140e+00 1.0007707063270491e+06
2.5572849105723647e+00 7.8705136691352564e+00 1.0006487143905454e+06
2.6319075901730851e+00 8.1001786616422962e+00 1.0005270031876713e+06
2.7065302697738063e+00 8.3298436541493395e+00 1.0004050468216556e+06
2.7811529493745271e+00 8.5595086466563810e+00 1.0002831142614986e+06
2.8841586141661764e+00 8.8765274854214340e+00 1.0002830758394204e+06
2.9871642789578252e+00 9.1935463241864834e+00 1.0002830378610113e+06
3.0901699437494745e+00 9.5105651629515346e+00 1.0002830000000000e+06
9.7398435393462801e-01 5.1058047884572355e+00 1.0022830000000000e+06
1.0185123212681839e+00 5.3392285677135458e+00 1.0021410652011561e+06
1.0630402886017396e+00 5.5726523469698561e+00 1.0020035153026984e+06
1.1075682559352955e+00 5.8060761262261664e+00 1.0018764468181913e+06
1.1520962232688512e+00 6.0394999054824767e+00 1.0017481382791876e+06
1.1966241906024071e+00 6.2729236847387870e+00 1.0016243046496211e+06
1.2411521579359628e+00 6.5063474639950964e+00 1.0014996739353717e+06
1.2856801252695187e+00 6.7397712432514076e+00 1.0013772070031572e+06
1.3302080926030744e+00 6.9731950225077162e+00 1.0012542718039756e+06
1.3747360599366303e+00 7.2066188017640274e+00 1.0011325833974547e+06
1.4192640272701860e+00 7.4400425810203368e+00 1.0010105362203040e+06
1.4637919946037419e+00 7.6734663602766480e+00 1.0008892763215655e+06
1.5083199619372976e+00 7.9068901395329574e+00 1.0007677186221342e+06
1.5528479292708535e+00 8.1403139187892695e+00 1.0006466476511400e+06
1.5973758966044092e+00 8.3737376980455789e+00 1.0005253468733210e+06
1.6419038639379646e+00 8.6071614773018865e+00 1.0004042826188308e+06
1.6864318312715207e+00 8.8405852565581977e+00 1.0002831181039423e+06
1.7488922694667624e+00 9.1680143401344285e+00 1.0002830785297350e+06
1.8113527076620035e+00 9.4954434237106575e+00 1.0002830391892636e+06
1.8738131458572451e+00 9.8228725072868865e+00 1.0002830000000000e+06
3.2187929704768981e-01 5.1161249212363522e+00 1.0022830000000000e+06
3.3708150821744792e-01 5.3577571483999824e+00 1.0021659350194711e+06
3.5228371938720604e-01 5.5993893755636135e+00 1.0020443242433846e+06
3.6748593055696416e-01 5.8410216027272437e+00 1.0019137055569690e+06
3.8268814172672228e-01 6.0826538298908748e+00 1.0017871878560233e+06
3.9789035289648039e-01 6.3242860570545059e+00 1.0016579983368169e+06
4.1309256406623851e-01 6.5659182842181361e+00 1.0015317572436768e+06
4.2829477523599663e-01 6.8075505113817671e+00 1.0014046438378379e+06
4.4349698640575475e-01 7.0491827385453982e+00 1.0012793041554927e+06
4.5869919757551292e-01 7.2908149657090293e+00 1.0011535384031058e+06
4.7390140874527104e-01 7.5324471928726595e+00 1.0010288864232568e+06
4.8910361991502910e-01 7.7740794200362897e+00 1.0009039393047246e+06
5.0430583108478721e-01 8.0157116471999199e+00 1.0007797041407534e+06
5.1950804225454539e-01 8.2573438743635528e+00 1.0006552516284931e+06
5.3471025342430345e-01 8.4989761015271821e+00 1.0005312278499149e+06
5.4991246459406162e-01 8.7406083286908132e+00 1.0004070877847093e+06
5.6511467576381968e-01 8.9822405558544443e+00 1.0002831181143572e+06
5.8604484894025755e-01 9.3149161319972009e+00 1.0002830788539759e+06
6.0697502211669518e-01 9.6475917081399576e+00 1.0002830394658532e+06
6.2790519529313304e-01 9.9802672842827160e+00 1.0002830000000000e+06
-3.2402733529818895e-01 5.1502670115352407e+00 1.0022830000000000e+06
-3.3909529407729089e-01 5.3897653580551905e+00 1.0021594481895365e+06
-3.5416325285639289e-01 5.6292637045751412e+00 1.0020269584347006e+06
-3.6923121163549483e-01 5.8687620510950911e+00 1.0019012585586079e+06
-3.8429917041459688e-01 6.1082603976150418e+00 1.0017716997148996e+06
-3.9936712919369882e-01 6.3477587441349916e+00 1.0016466391239654e+06
-4.1443508797280082e-01 6.5872570906549424e+00 1.0015199319658295e+06
-4.2950304675190276e-01 6.8267554371748922e+00 1.0013956154968822e+06
-4.4457100553100476e-01 7.0662537836948420e+00 1.0012705182653443e+06
-4.5963896431010676e-01 7.3057521302147927e+00 1.0011468152358957e+06
-4.7470692308920875e-01 7.5452504767347435e+00 1.0010226423844050e+06
-4.8977488186831070e-01 7.7847488232546933e+00 1.0008993343895432e+06
-5.0484284064741269e-01 8.0242471697746431e+00 1.0007756999768225e+06
-5.1991079942651464e-01 8.2637455162945930e+00 1.0006525956225700e+06
-5.3497875820561669e-01 8.5032438628145446e+00 1.0005292760465239e+06
-5.5004671698471863e-01 8.7427422093344944e+00 1.0004062305282091e+06
-5.6511467576382057e-01 8.9822405558544443e+00 1.0002831187201338e+06
-5.8604484894025843e-01 9.3149161319972009e+00 1.0002830791393578e+06
-6.0697502211669618e-01 9.6475917081399576e+00 1.0002830395517041e+06
-6.2790519529313404e-01 9.9802672842827160e+00 1.0002830000000000e+06
-9.7587180620196634e-01 5.1156991597432020e+00 1.0022830000000000e+06
-1.0202818077688136e+00 5.3485045407941394e+00 1.0021283204272456e+06
-1.0646918093356610e+00 5.5813099218450768e+00 1.0019977631123271e+06
-1.1091018109025084e+00 5.8141153028960142e+00 1.0018672090033959e+06
-1.1535118124693555e+00 6.0469206839469516e+00 1.0017447878569548e+06
-1.1979218140362029e+00 6.2797260649978881e+00 1.0016199407398447e+06
-1.2423318156030503e+00 6.5125314460488255e+00 1.0014984756402249e+06
-1.2867418171698977e+00 6.7453368270997629e+00 1.0013755768160097e+06
-1.3311518187367448e+00 6.9781422081507003e+00 1.0012543671790162e+06
-1.3755618203035922e+00 7.2109475892016368e+00 1.0011322959069975e+06
-1.4199718218704396e+00 7.4437529702525742e+00 1.0010111917529928e+06
-1.4643818234372867e+00 7.6765583513035116e+00 1.0008895268751510e+06
-1.5087918250041341e+00 7.9093637323544490e+00 1.0007684468563447e+06
-1.5532018265709817e+00 8.1421691134053873e+00 1.0006469878946021e+06
-1.5976118281378289e+00 8.3749744944563229e+00 1.0005258421238292e+06
-1.6420218297046760e+00 8.6077798755072585e+00 1.0004044533028562e+06
-1.6864318312715234e+00 8.8405852565581977e+00 1.0002831181855757e+06
-1.7488922694667650e+00 9.1680143401344267e+00 1.0002830784507125e+06
-1.8113527076620066e+00 9.4954434237106558e+00 1.0002830391477547e+06
-1.8738131458572482e+00 9.8228725072868865e+00 1.0002830000000000e+06
-1.5468987737478610e+00 4.7608648896403762e+00 1.0022830000000000e+06
-1.6240396597245275e+00 4.9982801244538768e+00 1.0021719632164564e+06
-1.7011805457011944e+00 5.2356953592673774e+00 1.0020473955096153e+06
-1.7783214316778613e+00 5.4731105940808780e+00 1.0019273635890234e+06
-1.8554623176545277e+00 5.7105258288943777e+00 1.0018002484648178e+06
-1.9326032036311944e+00 5.9479410637078773e+00 1.0016765863563945e+06
-2.0097440896078611e+00 6.1853562985213788e+00 1.0015496561167220e+06
-2.0868849755845278e+00 6.4227715333348794e+00 1.0014244461209172e+06
-2.1640258615611945e+00 6.6601867681483791e+00 1.0012974808462841e+06
-2.2411667475378612e+00 6.8976020029618788e+00 1.0011714568140167e+06
-2.3183076335145278e+00 7.1350172377753802e+00 1.0010444058697895e+06
-2.3954485194911945e+00 7.3724324725888808e+00 1.0009179319722040e+06
-2.4725894054678612e+00 7.6098477074023805e+00 1.0007908354983352e+06
-2.5497302914445279e+00 7.8472629422158802e+00 1.0006641077735662e+06
-2.6268711774211950e+00 8.0846781770293816e+00 1.0005370305622726e+06
-2.7040120633978617e+00 8.3220934118428822e+00 1.0004101474982721e+06
-2.7811529493745279e+00 8.5595086466563810e+00 1.0002831132331566e+06
-2.8841586141661772e+00 8.8765274854214340e+00 1.0002830755341172e+06
-2.9871642789578261e+00 9.1935463241864834e+00 1.0002830377812650e+06
-3.0901699437494754e+00 9.5105651629515346e+00 1.0002830000000000e+06
-2.0411246577711868e+00 4.3376106926622464e+00 1.0022830000000000e+06
-2.1530552181658411e+00 4.5754752413829918e+00 1.0022054004007454e+06
-2.2649857785604950e+00 4.8133397901037371e+00 1.0021041925588321e+06
-2.3769163389551498e+00 5.0512043388244834e+00 1.0019828681665745e+06
-2.4888468993498036e+00 5.2890688875452287e+00 1.0018623376109184e+06
-2.6007774597444580e+00 5.5269334362659741e+00 1.0017340784616705e+06
-2.7127080201391123e+00 5.7647979849867204e+00 1.0016066802856742e+06
-2.8246385805337666e+00 6.0026625337074657e+00 1.0014756320640065e+06
-2.9365691409284205e+00 6.2405270824282111e+00 1.0013451962110493e+06
-3.0484997013230748e+00 6.4783916311489564e+00 1.0012128536536809e+06
-3.1604302617177291e+00 6.7162561798697018e+00 1.0010809530020477e+06
-3.2723608221123834e+00 6.9541207285904481e+00 1.0009479932516047e+06
-3.3842913825070378e+00 7.1919852773111934e+00 1.0008153658851334e+06
-3.4962219429016921e+00 7.4298498260319388e+00 1.0006821580652636e+06
-3.6081525032963464e+00 7.6677143747526841e+00 1.0005492005584545e+06
-3.7200830636910003e+00 7.9055789234734295e+00 1.0004160342210263e+06
-3.8320136240856546e+00 8.1434434721941749e+00 1.0002831092924598e+06
-3.9739400546073456e+00 8.4450524896828494e+00 1.0002830732904531e+06
-4.1158664851290361e+00 8.7466615071715204e+00 1.0002830367454332e+06
-4.2577929156507270e+00 9.0482705246601949e+00 1.0002830000000000e+06
-2.6574331363114556e+00 4.1874445775525544e+00 1.0022830000000000e+06
-2.7927461374676752e+00 4.4006637495504028e+00 1.0021597833850024e+06
-2.9280591386238952e+00 4.6138829215482513e+00 1.0020374533338564e+06
-3.0633721397801152e+00 4.8271020935461006e+00 1.0019240794382226e+06
-3.1986851409363348e+00 5.0403212655439491e+00 1.0018013828429333e+06
-3.3339981420925544e+00 5.2535404375417984e+00 1.0016806446384665e+06
-3.4693111432487744e+00 5.4667596095396478e+00 1.0015551231275703e+06
-3.6046241444049940e+00 5.6799787815374962e+00 1.0014306730814194e+06
-3.7399371455612140e+00 5.8931979535353447e+00 1.0013037350076651e+06
-3.8752501467174336e+00 6.1064171255331932e+00 1.0011774810954456e+06
-4.0105631478736532e+00 6.3196362975310416e+00 1.0010498654828867e+06
-4.1458761490298732e+00 6.5328554695288910e+00 1.0009227104392615e+06
-4.2811891501860933e+00 6.7460746415267394e+00 1.0007947847502587e+06
-4.4165021513423124e+00 6.9592938135245879e+00 1.0006671678590698e+06
-4.5518151524985324e+00 7.1725129855224372e+00 1.0005391302234185e+06
-4.6871281536547524e+00 7.3857321575202857e+00 1.0004112286773588e+06
-4.8224411548109716e+00 7.5989513295181350e+00 1.0002831110533411e+06
-5.0010500864706380e+00 7.8803939713521398e+00 1.0002830739694585e+06
-5.1796590181303026e+00 8.1618366131861446e+00 1.0002830369791699e+06
-5.3582679497899690e+00 8.4432792550201494e+00 1.0002830000000000e+06
-3.2043833941588624e+00 3.8734341346388121e+00 1.0022830000000000e+06
-3.3626604262575719e+00 4.0647582002852687e+00 1.0021594256609320e+06
-3.5209374583562805e+00 4.2560822659317239e+00 1.0020460471976009e+06
-3.6792144904549899e+00 4.4474063315781800e+00 1.0019186810226525e+06
-3.8374915225536985e+00 4.6387303972246352e+00 1.0017964340328390e+06
-3.9957685546524080e+00 4.8300544628710913e+00 1.0016693521525544e+06
-4.1540455867511170e+00 5.0213785285175465e+00 1.0015450710505374e+06
-4.3123226188498265e+00 5.2127025941640026e+00 1.0014182903857041e+06
-4.4705996509485351e+00 5.4040266598104578e+00 1.0012930802168141e+06
-4.6288766830472445e+00 5.5953507254569130e+00 1.0011664725798072e+06
-4.7871537151459531e+00 5.7866747911033691e+00 1.0010407736464873e+06
-4.9454307472446626e+00 5.9779988567498243e+00 1.0009142585012522e+06
-5.1037077793433712e+00 6.1693229223962804e+00 1.0007882885889619e+06
-5.2619848114420806e+00 6.3606469880427365e+00 1.0006618425696316e+06
-5.4202618435407892e+00 6.5519710536891917e+00 1.0005357126633140e+06
-5.5785388756394987e+00 6.7432951193356470e+00 1.0004093633535067e+06
-5.7368159077382082e+00 6.9346191849821031e+00 1.0002831140053003e+06
-5.9492905709877713e+00 7.1914569325740336e+00 1.0002830760450014e+06
-6.1617652342373335e+00 7.4482946801659624e+00 1.0002830380506825e+06
-6.3742398974868975e+00 7.7051324277578921e+00 1.0002830000000000e+06
-3.7359574363113626e+00 3.5082975517700410e+00 1.0022830000000000e+06
-3.9125049494664466e+00 3.6740867018693013e+00 1.0021747992655432e+06
-4.0890524626215301e+00 3.8398758519685603e+00 1.0020351825050943e+06
-4.2655999757766141e+00 4.0056650020678202e+00 1.0019078249805125e+06
-4.4421474889316981e+00 4.1714541521670805e+00 1.0017766955446585e+06
-4.6186950020867821e+00 4.3372433022663399e+00 1.0016513480059825e+06
-4.7952425152418661e+00 4.5030324523655993e+00 1.0015240102848485e+06
-4.9717900283969501e+00 4.6688216024648597e+00 1.0013997281972411e+06
-5.1483375415520332e+00 4.8346107525641182e+00 1.0012742149331906e+06
-5.3248850547071171e+00 5.0003999026633785e+00 1.0011503655037411e+06
-5.5014325678622020e+00 5.1661890527626380e+00 1.0010257544540424e+06
-5.6779800810172860e+00 5.3319782028618983e+00 1.0009020805456832e+06
-5.8545275941723682e+00 5.4977673529611568e+00 1.0007779262326764e+06
-6.0310751073274531e+00 5.6635565030604171e+00 1.0006542992349404e+06
-6.2076226204825371e+00 5.8293456531596766e+00 1.0005303891816288e+06
-6.3841701336376211e+00 5.9951348032589369e+00 1.0004067464036102e+06
-6.5607176467927051e+00 6.1609239533581963e+00 1.0002831175355884e+06
-6.8037071892665093e+00 6.3891063220010933e+00 1.0002830784172070e+06
-7.0466967317403126e+00 6.6172886906439885e+00 1.0002830391731641e+06
-7.2896862742141169e+00 6.8454710592868846e+00 1.0002830000000000e+06
-4.2772450249492611e+00 3.1076004133249899e+00 1.0022830000000000e+06
-4.4649892702258400e+00 3.2440045919066942e+00 1.0021044061523621e+06
-4.6527335155024190e+00 3.3804087704883985e+00 1.0019749764506880e+06
-4.8404777607789979e+00 3.5168129490701028e+00 1.0018439870234656e+06
-5.0282220060555769e+00 3.6532171276518071e+00 1.0017218079616507e+06
-5.2159662513321559e+00 3.7896213062335113e+00 1.0015974812389798e+06
-5.4037104966087357e+00 3.9260254848152161e+00 1.0014773561897590e+06
-5.5914547418853147e+00 4.0624296633969204e+00 1.0013557290880011e+06
-5.7791989871618936e+00 4.1988338419786251e+00 1.0012364065545019e+06
-5.9669432324384726e+00 4.3352380205603289e+00 1.0011161678263063e+06
-6.1546874777150515e+00 4.4716421991420336e+00 1.0009972352788025e+06
-6.3424317229916305e+00 4.6080463777237375e+00 1.0008777411412859e+06
-6.5301759682682103e+00 4.7444505563054422e+00 1.0007589942434650e+06
-6.7179202135447893e+00 4.8808547348871461e+00 1.0006398896334874e+06
-6.9056644588213683e+00 5.0172589134688508e+00 1.0005211621737505e+06
-7.0934087040979472e+00 5.1536630920505546e+00 1.0004021833276873e+06
-7.2811529493745262e+00 5.2900672706322593e+00 1.0002831195587631e+06
-7.5508252808328420e+00 5.4859956880630838e+00 1.0002830791619535e+06
-7.8204976122911569e+00 5.6819241054939074e+00 1.0002830395006419e+06
-8.0901699437494727e+00 5.8778525229247327e+00 1.0002830000000000e+06
-4.4145430915666211e+00 2.4269156018942035e+00 1.0022830000000000e+06
-4.6315566558683807e+00 2.5462198184580305e+00 1.0021936939904718e+06
-4.8485702201701395e+00 2.6655240350218574e+00 1.0020637451136266e+06
-5.0655837844718992e+00 2.7848282515856844e+00 1.0019386193713996e+06
-5.2825973487736588e+00 2.9041324681495118e+00 1.0018077599769968e+06
-5.4996109130754185e+00 3.0234366847133392e+00 1.0016809321616066e+06
-5.7166244773771782e+00 3.1427409012771661e+00 1.0015513910698073e+06
-5.9336380416789369e+00 3.2620451178409930e+00 1.0014245267733478e+06
-6.1506516059806966e+00 3.3813493344048200e+00 1.0012962246218486e+06
-6.3676651702824563e+00 3.5006535509686474e+00 1.0011695514429023e+06
-6.5846787345842159e+00 3.6199577675324743e+00 1.0010420898394708e+06