variables="x","y","T"
zone t="Temperature" n=1000 e=950 et=quadrilateral f=fepoint
4.7950939598809903e+00 0.0000000000000000e+00 3.7300000000000000e+02
5.0690363830451490e+00 0.0000000000000000e+00 3.6883556928942517e+02
5.3429788062093069e+00 0.0000000000000000e+00 3.6147466967483865e+02
5.6169212293734656e+00 0.0000000000000000e+00 3.5457208958205376e+02
5.8908636525376235e+00 0.0000000000000000e+00 3.4665974597184066e+02
6.1648060757017822e+00 0.0000000000000000e+00 3.3913372018894091e+02
6.4387484988659409e+00 0.0000000000000000e+00 3.3095247855788466e+02
6.7126909220300988e+00 0.0000000000000000e+00 3.2332588145111635e+02
6.9866333451942575e+00 0.0000000000000000e+00 3.1514602181208454e+02
7.2605757683584162e+00 0.0000000000000000e+00 3.0777701604104755e+02
7.5345181915225741e+00 0.0000000000000000e+00 3.0009607653006674e+02
7.8084606146867328e+00 0.0000000000000000e+00 2.9314275651387914e+02
8.0824030378508915e+00 0.0000000000000000e+00 2.8354092132812218e+02
8.3563454610150494e+00 0.0000000000000000e+00 2.8345131066208404e+02
8.6302878841792072e+00 0.0000000000000000e+00 2.8338698147058778e+02
8.9042303073433651e+00 0.0000000000000000e+00 2.8330922111631276e+02
9.1781727305075247e+00 0.0000000000000000e+00 2.8323650015582166e+02
9.4521151536716843e+00 0.0000000000000000e+00 2.8315595900836598e+02
9.7260575768358422e+00 0.0000000000000000e+00 2.8307926242626053e+02
1.0000000000000000e+01 0.0000000000000000e+00 2.8300000000000000e+02
4.7861938966606008e+00 6.0463690008769033e-01 3.7300000000000000e+02
5.0564545870018733e+00 6.3877876511691933e-01 3.6585817045692590e+02
5.3267152773431459e+00 6.7292063014614834e-01 3.6001478264739768e+02
5.5969759676844184e+00 7.0706249517537745e-01 3.5267274599954482e+02
5.8672366580256909e+00 7.4120436020460656e-01 3.4552815860280629e+02
6.1374973483669635e+00 7.7534622523383567e-01 3.3759071699108063e+02
6.4077580387082360e+00 8.0948809026306467e-01 3.3006324192910176e+02
6.6780187290495086e+00 8.4362995529229368e-01 3.2190492575085528e+02
6.9482794193907802e+00 8.7777182032152279e-01 3.1438113944275494e+02
7.2185401097320536e+00 9.1191368535075190e-01 3.0628340182215965e+02
7.4888008000733262e+00 9.4605555037998090e-01 2.9921755123329552e+02
7.7590614904145987e+00 9.8019741540921002e-01 2.9286222937681822e+02
8.0293221807558712e+00 1.0143392804384392e+00 2.8351834239607280e+02
8.2995828710971438e+00 1.0484811454676681e+00 2.8345612533976271e+02
8.5698435614384163e+00 1.0826230104968972e+00 2.8338768578917342e+02
8.8401042517796888e+00 1.1167648755261264e+00 2.8331104759457457e+02
9.1103649421209614e+00 1.1509067405553552e+00 2.8323425278639678e+02
9.3806256324622321e+00 1.1850486055845844e+00 2.8315737376838956e+02
9.6508863228035064e+00 1.2191904706138135e+00 2.8307832596148791e+02
9.9211470131447790e+00 1.2533323356430426e+00 2.8300000000000000e+02
4.7531792648717408e+00 1.2204090082238155e+00 3.7300000000000000e+02
5.0127925462619816e+00 1.2870663694566962e+00 3.6739412332016798e+02
5.2724058276522214e+00 1.3537237306895766e+00 3.5958799361242495e+02
5.5320191090424622e+00 1.4203810919224573e+00 3.5209707265595040e+02
5.7916323904327029e+00 1.4870384531553382e+00 3.4393138207720409e+02
6.0512456718229437e+00 1.5536958143882187e+00 3.3619793246176357e+02
6.3108589532131836e+00 1.6203531756210994e+00 3.2788307626132035e+02
6.5704722346034243e+00 1.6870105368539801e+00 3.2008755528939503e+02
6.8300855159936642e+00 1.7536678980868605e+00 3.1156750590960195e+02
7.0896987973839058e+00 1.8203252593197414e+00 3.0355485799591986e+02
7.3493120787741457e+00 1.8869826205526221e+00 2.9421678493147914e+02
7.6089253601643865e+00 1.9536399817855026e+00 2.8388069081307503e+02
7.8685386415546272e+00 2.0202973430183833e+00 2.8357642043767976e+02
8.1281519229448662e+00 2.0869547042512639e+00 2.8350382851807711e+02
8.3877652043351087e+00 2.1536120654841446e+00 2.8340503996839044e+02
8.6473784857253495e+00 2.2202694267170253e+00 2.8332854935182792e+02
8.9069917671155885e+00 2.2869267879499060e+00 2.8324314698471392e+02
9.1666050485058292e+00 2.3535841491827862e+00 2.8316264388267086e+02
9.4262183298960700e+00 2.4202415104156669e+00 2.8308113921414031e+02
9.6858316112863108e+00 2.4868988716485481e+00 2.8300000000000000e+02
4.8103258398493498e+00 1.9045427314397796e+00 3.7300000000000000e+02
5.0465068408510954e+00 1.9980534048822534e+00 3.6345478504104619e+02
5.2826878418528409e+00 2.0915640783247267e+00 3.5498599683669693e+02
5.5188688428545865e+00 2.1850747517672007e+00 3.4643555772270395e+02
5.7550498438563311e+00 2.2785854252096742e+00 3.3855686287110740e+02
5.9912308448580776e+00 2.3720960986521482e+00 3.3031184924712193e+02
6.2274118458598222e+00 2.4656067720946213e+00 3.2262280062185363e+02
6.4635928468615678e+00 2.5591174455370953e+00 3.1435801552021553e+02
6.6997738478633142e+00 2.6526281189795693e+00 3.0673091513962788e+02
6.9359548488650589e+00 2.7461387924220428e+00 2.9838686617813357e+02
7.1721358498668035e+00 2.8396494658645164e+00 2.9108356530268412e+02
7.4083168508685500e+00 2.9331601393069899e+00 2.8354721203443546e+02
7.6444978518702955e+00 3.0266708127494639e+00 2.8359759501393222e+02
7.8806788528720402e+00 3.1201814861919375e+00 2.8347308034897236e+02
8.1168598538737857e+00 3.2136921596344110e+00 2.8341119247965815e+02
8.3530408548755322e+00 3.3072028330768850e+00 2.8331776330636978e+02
8.5892218558772768e+00 3.4007135065193586e+00 2.8324286282641947e+02
8.8254028568790233e+00 3.4942241799618325e+00 2.8315951164961376e+02
9.0615838578807679e+00 3.5877348534043061e+00 2.8308033961002110e+02
9.2977648588825126e+00 3.6812455268467796e+00 2.8300000000000000e+02
4.5648994235034008e+00 2.5095746948630890e+00 3.7300000000000000e+02
4.7858556012368352e+00 2.6310463815027769e+00 3.6270029023293790e+02
5.0068117789702677e+00 2.7525180681424644e+00 3.5381571844493283e+02
5.2277679567037012e+00 2.8739897547821518e+00 3.4570223997583969e+02
5.4487241344371347e+00 2.9954614414218397e+00 3.3742908166347274e+02
5.6696803121705681e+00 3.1169331280615271e+00 3.2971258727116339e+02
5.8906364899040016e+00 3.2384048147012146e+00 3.2156153942827632e+02
6.1115926676374350e+00 3.3598765013409024e+00 3.1401060340070688e+02
6.3325488453708685e+00 3.4813481879805899e+00 3.0579519494708228e+02
6.5535050231043019e+00 3.6028198746202773e+00 2.9834539462906093e+02
6.7744612008377354e+00 3.7242915612599652e+00 2.9008016597772195e+02
6.9954173785711680e+00 3.8457632478996522e+00 2.8365078917119178e+02
7.2163735563046023e+00 3.9672349345393405e+00 2.8351323102447316e+02
7.4373297340380358e+00 4.0887066211790275e+00 2.8349526126683389e+02
7.6582859117714683e+00 4.2101783078187154e+00 2.8338729738997881e+02
7.8792420895049027e+00 4.3316499944584033e+00 2.8332306078076624e+02
8.1001982672383352e+00 4.4531216810980903e+00 2.8323436490368886e+02
8.3211544449717696e+00 4.5745933677377790e+00 2.8315930542083453e+02
8.5421106227052022e+00 4.6960650543774660e+00 2.8307844523853169e+02
8.7630668004386365e+00 4.8175367410171530e+00 2.8300000000000000e+02
3.9812365876987816e+00 2.8925376950141093e+00 3.7300000000000000e+02
4.1974962380172398e+00 3.0496595280620369e+00 3.6726334830574581e+02
4.4137558883356967e+00 3.2067813611099640e+00 3.5954205980445255e+02
4.6300155386541544e+00 3.3639031941578921e+00 3.5141501122342981e+02
4.8462751889726112e+00 3.5210250272058188e+00 3.4355036049711691e+02
5.0625348392910690e+00 3.6781468602537468e+00 3.3530232038959048e+02
5.2787944896095267e+00 3.8352686933016744e+00 3.2753856967111295e+02
5.4950541399279835e+00 3.9923905263496016e+00 3.1921490648659915e+02
5.7113137902464421e+00 4.1495123593975292e+00 3.1154482526183870e+02
5.9275734405648999e+00 4.3066341924454568e+00 3.0298379964531927e+02
6.1438330908833567e+00 4.4637560254933843e+00 2.9493549654552220e+02
6.3600927412018144e+00 4.6208778585413119e+00 2.8373059135038272e+02
6.5763523915202722e+00 4.7779996915892395e+00 2.8363056572901559e+02
6.7926120418387290e+00 4.9351215246371662e+00 2.8346231099233756e+02
7.0088716921571859e+00 5.0922433576850938e+00 2.8341361199822768e+02
7.2251313424756436e+00 5.2493651907330205e+00 2.8331194845334824e+02
7.4413909927941022e+00 5.4064870237809490e+00 2.8324345636806606e+02
7.6576506431125599e+00 5.5636088568288775e+00 2.8315778481206638e+02
7.8739102934310177e+00 5.7207306898768042e+00 2.8308052100430541e+02
8.0901699437494745e+00 5.8778525229247318e+00 2.8300000000000000e+02
3.5197888996628359e+00 3.3053017840659771e+00 3.7300000000000000e+02
3.7182045509550083e+00 3.4916264827618142e+00 3.6585132668194416e+02
3.9166202022471817e+00 3.6779511814576522e+00 3.5896607962825016e+02
4.1150358535393536e+00 3.8642758801534893e+00 3.5169956608114205e+02
4.3134515048315265e+00 4.0506005788493269e+00 3.4401993542508063e+02
4.5118671561236994e+00 4.2369252775451640e+00 3.3656627910370906e+02
4.7102828074158722e+00 4.4232499762410020e+00 3.2860493126370648e+02
4.9086984587080442e+00 4.6095746749368391e+00 3.2117184607872360e+02
5.1071141100002171e+00 4.7958993736326763e+00 3.1306929161262610e+02
5.3055297612923900e+00 4.9822240723285134e+00 3.0590017928040754e+02
5.5039454125845628e+00 5.1685487710243514e+00 2.9820932645987028e+02
5.7023610638767348e+00 5.3548734697201885e+00 2.9380510117709269e+02
5.9007767151689077e+00 5.5411981684160256e+00 2.8345097100414216e+02
6.0991923664610805e+00 5.7275228671118636e+00 2.8347780123190290e+02
6.2976080177532534e+00 5.9138475658077008e+00 2.8336625461433198e+02
6.4960236690454263e+00 6.1001722645035388e+00 2.8331799528853924e+02
6.6944393203375983e+00 6.2864969631993750e+00 2.8322775775878955e+02
6.8928549716297693e+00 6.4728216618952121e+00 2.8315791522841397e+02
7.0912706229219422e+00 6.6591463605910493e+00 2.8307693435965967e+02
7.2896862742141160e+00 6.8454710592868873e+00 2.8300000000000000e+02
3.0523788930234002e+00 3.6896922564384371e+00 3.7300000000000000e+02
3.2272136827320050e+00 3.9010312128236717e+00 3.6553508273242875e+02
3.4020484724406099e+00 4.1123701692089059e+00 3.5833191916407571e+02
3.5768832621492153e+00 4.3237091255941404e+00 3.5126113603557656e+02
3.7517180518578201e+00 4.5350480819793750e+00 3.4415343583946827e+02
3.9265528415664250e+00 4.7463870383646096e+00 3.3659507074478910e+02
4.1013876312750304e+00 4.9577259947498442e+00 3.2933732300428829e+02
4.2762224209836361e+00 5.1690649511350788e+00 3.2146397620665317e+02
4.4510572106922401e+00 5.3804039075203125e+00 3.1425525412918637e+02
4.6258920004008459e+00 5.5917428639055480e+00 3.0617121737056914e+02
4.8007267901094508e+00 5.8030818202907817e+00 2.9900869800605045e+02
4.9755615798180557e+00 6.0144207766760172e+00 2.8985885936058486e+02
5.1503963695266606e+00 6.2257597330612509e+00 2.8359436416200941e+02
5.3252311592352664e+00 6.4370986894464854e+00 2.8343195314553424e+02
5.5000659489438721e+00 6.6484376458317209e+00 2.8340531669786685e+02
5.6749007386524761e+00 6.8597766022169546e+00 2.8329831229492351e+02
5.8497355283610810e+00 7.0711155586021883e+00 2.8323774078197329e+02
6.0245703180696859e+00 7.2824545149874238e+00 2.8315184789782995e+02
6.1994051077782917e+00 7.4937934713726584e+00 2.8307852953959423e+02
6.3742398974868966e+00 7.7051324277578921e+00 2.8300000000000000e+02
2.4760836077770194e+00 3.9016834460580956e+00 3.7300000000000000e+02
2.6277775205145426e+00 4.1407148044245190e+00 3.6817565276657609e+02
2.7794714332520662e+00 4.3797461627909433e+00 3.6217908236346443e+02
2.9311653459895894e+00 4.6187775211573667e+00 3.5524587771141410e+02
3.0828592587271131e+00 4.8578088795237910e+00 3.4784383110335102e+02
3.2345531714646367e+00 5.0968402378902153e+00 3.4042358713928587e+02
3.3862470842021599e+00 5.3358715962566388e+00 3.3246454658376996e+02
3.5379409969396836e+00 5.5749029546230631e+00 3.2493397546329885e+02
3.6896349096772072e+00 5.8139343129894874e+00 3.1662936776172171e+02
3.8413288224147308e+00 6.0529656713559108e+00 3.0913282216849194e+02
3.9930227351522540e+00 6.2919970297223351e+00 3.0036016439489094e+02
4.1447166478897772e+00 6.5310283880887585e+00 2.9205334489693433e+02
4.2964105606273009e+00 6.7700597464551828e+00 2.8354054709039320e+02
4.4481044733648245e+00 7.0090911048216062e+00 2.8352610872841433e+02
4.5997983861023473e+00 7.2481224631880306e+00 2.8338117010135301e+02
4.7514922988398718e+00 7.4871538215544557e+00 2.8333285424752813e+02
4.9031862115773954e+00 7.7261851799208792e+00 2.8323335293240683e+02
5.0548801243149191e+00 7.9652165382873035e+00 2.8316311226577761e+02
5.2065740370524418e+00 8.2042478966537278e+00 2.8307854830990618e+02
5.3582679497899655e+00 8.4432792550201512e+00 2.8300000000000000e+02
2.0401452032634251e+00 4.3355292458825669e+00 3.7300000000000000e+02
2.1568635039153885e+00 4.5835682605550740e+00 3.6778326250283664e+02
2.2735818045673515e+00 4.8316072752275803e+00 3.6078283620830803e+02
2.3903001052193149e+00 5.0796462899000874e+00 3.5339148470743214e+02
2.5070184058712779e+00 5.3276853045725936e+00 3.4578108848294931e+02
2.6237367065232413e+00 5.5757243192451007e+00 3.3785510525677853e+02
2.7404550071752043e+00 5.8237633339176069e+00 3.3023780063491694e+02
2.8571733078271677e+00 6.0718023485901140e+00 3.2207606903446441e+02
2.9738916084791311e+00 6.3198413632626211e+00 3.1464801008921347e+02
3.0906099091310941e+00 6.5678803779351282e+00 3.0635743936056485e+02
3.2073282097830571e+00 6.8159193926076345e+00 2.9955630222820849e+02
3.3240465104350205e+00 7.0639584072801416e+00 2.9329024028028050e+02
3.4407648110869840e+00 7.3119974219526487e+00 2.8355593388226669e+02
3.5574831117389469e+00 7.5600364366251549e+00 2.8341427229869345e+02
3.6742014123909108e+00 7.8080754512976629e+00 2.8340948632186195e+02
3.7909197130428729e+00 8.0561144659701664e+00 2.8329821187571827e+02
3.9076380136948368e+00 8.3041534806426753e+00 2.8324206723377870e+02
4.0243563143468002e+00 8.5521924953151824e+00 2.8315336516380893e+02
4.1410746149987627e+00 8.8002315099876878e+00 2.8308005928053262e+02
4.2577929156507270e+00 9.0482705246601967e+00 2.8300000000000000e+02
1.5871900757629942e+00 4.8848687665437094e+00 3.7300000000000000e+02
1.6662942793412301e+00 5.1283264716178056e+00 3.6364918674537233e+02
1.7453984829194660e+00 5.3717841766919019e+00 3.5540694619915308e+02
1.8245026864977014e+00 5.6152418817659973e+00 3.4734691346012397e+02
1.9036068900759373e+00 5.8586995868400935e+00 3.3942874982393698e+02
1.9827110936541732e+00 6.1021572919141898e+00 3.3177949981445909e+02
2.0618152972324091e+00 6.3456149969882860e+00 3.2381554529287286e+02
2.1409195008106447e+00 6.5890727020623823e+00 3.1641237733408406e+02
2.2200237043888809e+00 6.8325304071364785e+00 3.0830150958451270e+02
2.2991279079671165e+00 7.0759881122105748e+00 3.0121786843829784e+02
2.3782321115453522e+00 7.3194458172846701e+00 2.9274485612824554e+02
2.4573363151235879e+00 7.5629035223587664e+00 2.8383464923221982e+02
2.5364405187018235e+00 7.8063612274328618e+00 2.8348250148998028e+02
2.6155447222800596e+00 8.0498189325069571e+00 2.8349951561704108e+02
2.6946489258582953e+00 8.2932766375810534e+00 2.8335682791748309e+02
2.7737531294365310e+00 8.5367343426551496e+00 2.8331992856430008e+02
2.8528573330147671e+00 8.7801920477292459e+00 2.8322205521301697e+02
2.9319615365930027e+00 9.0236497528033421e+00 2.8315706801264480e+02
3.0110657401712388e+00 9.2671074578774384e+00 2.8307509502588704e+02
3.0901699437494745e+00 9.5105651629515346e+00 2.8300000000000000e+02
9.7398435393462801e-01 5.1058047884572355e+00 3.7300000000000000e+02
1.0213437640358183e+00 5.3540715105009014e+00 3.6392449573140618e+02
1.0687031741370088e+00 5.6023382325445672e+00 3.5524548139004105e+02
1.1160625842381990e+00 5.8506049545882330e+00 3.4705504135493419e+02
1.1634219943393895e+00 6.0988716766318998e+00 3.3901190512008282e+02
1.2107814044405798e+00 6.3471383986755647e+00 3.3088776041771189e+02
1.2581408145417703e+00 6.5954051207192315e+00 3.2314821974784468e+02
1.3055002246429608e+00 6.8436718427628964e+00 3.1489144944754474e+02
1.3528596347441511e+00 7.0919385648065623e+00 3.0733620912884720e+02
1.4002190448453415e+00 7.3402052868502290e+00 2.9864563354087159e+02
1.4475784549465320e+00 7.5884720088938948e+00 2.9124466423163409e+02
1.4949378650477223e+00 7.8367387309375607e+00 2.8350181177045346e+02
1.5422972751489126e+00 8.0850054529812265e+00 2.8364278994523602e+02
1.5896566852501031e+00 8.3332721750248933e+00 2.8344472938024882e+02
1.6370160953512931e+00 8.5815388970685564e+00 2.8342727076921733e+02
1.6843755054524836e+00 8.8298056191122232e+00 2.8330396531998940e+02
1.7317349155536741e+00 9.0780723411558899e+00 2.8324561891113558e+02
1.7790943256548641e+00 9.3263390631995549e+00 2.8315409104887362e+02
1.8264537357560551e+00 9.5746057852432234e+00 2.8308054751700490e+02
1.8738131458572451e+00 9.8228725072868865e+00 2.8300000000000000e+02
3.2187929704768981e-01 5.1161249212363522e+00 3.7300000000000000e+02
3.3798592327113414e-01 5.3721324140282656e+00 3.6551879925304394e+02
3.5409254949457858e-01 5.6281399068201798e+00 3.5763532858068044e+02
3.7019917571802291e-01 5.8841473996120932e+00 3.4935000027202091e+02
3.8630580194146730e-01 6.1401548924040075e+00 3.4108339169382128e+02
4.0241242816491174e-01 6.3961623851959217e+00 3.3297714354648332e+02
4.1851905438835607e-01 6.6521698779878351e+00 3.2458111753016999e+02
4.3462568061180046e-01 6.9081773707797485e+00 3.1672015489483351e+02
4.5073230683524479e-01 7.1641848635716627e+00 3.0815070735004883e+02
4.6683893305868923e-01 7.4201923563635770e+00 3.0066028202778347e+02
4.8294555928213362e-01 7.6761998491554904e+00 2.9167540275249416e+02
4.9905218550557801e-01 7.9322073419474046e+00 2.8375671973676958e+02
5.1515881172902234e-01 8.1882148347393180e+00 2.8348812463769946e+02
5.3126543795246672e-01 8.4442223275312323e+00 2.8352810808621365e+02
5.4737206417591111e-01 8.7002298203231465e+00 2.8337796190872695e+02
5.6347869039935550e-01 8.9562373131150590e+00 2.8333891181148294e+02
5.7958531662279988e-01 9.2122448059069733e+00 2.8323513514787527e+02
5.9569194284624427e-01 9.4682522986988875e+00 2.8316615202035916e+02
6.1179856906968866e-01 9.7242597914908018e+00 2.8307939466454542e+02
6.2790519529313304e-01 9.9802672842827160e+00 2.8300000000000000e+02
-3.2402733529818895e-01 5.1502670115352407e+00 3.7300000000000000e+02
-3.4002090687687025e-01 5.4044775522061608e+00 3.6503204519880580e+02
-3.5601447845555156e-01 5.6586880928770800e+00 3.5658549036186236e+02
-3.7200805003423293e-01 5.9128986335480000e+00 3.4840738707841115e+02
-3.8800162161291418e-01 6.1671091742189192e+00 3.4021794325401288e+02
-4.0399519319159555e-01 6.4213197148898393e+00 3.3195837911773339e+02
-4.1998876477027686e-01 6.6755302555607594e+00 3.2403371888416132e+02
-4.3598233634895822e-01 6.9297407962316795e+00 3.1563499342138249e+02
-4.5197590792763953e-01 7.1839513369025987e+00 3.0799458508652390e+02
-4.6796947950632078e-01 7.4381618775735179e+00 2.9936112141274327e+02
-4.8396305108500215e-01 7.6923724182444380e+00 2.9245628175708407e+02
-4.9995662266368346e-01 7.9465829589153580e+00 2.8355470955653681e+02
-5.1595019424236488e-01 8.2007934995862790e+00 2.8363156624399005e+02
-5.3194376582104619e-01 8.4550040402571973e+00 2.8343208613378147e+02
-5.4793733739972739e-01 8.7092145809281174e+00 2.8342665708798444e+02
-5.6393090897840870e-01 8.9634251215990357e+00 2.8330620484400816e+02
-5.7992448055709012e-01 9.2176356622699576e+00 2.8324921344223998e+02
-5.9591805213577143e-01 9.4718462029408776e+00 2.8315688623043457e+02
-6.1191162371445273e-01 9.7260567436117960e+00 2.8308212494313312e+02
-6.2790519529313404e-01 9.9802672842827160e+00 2.8300000000000000e+02
-9.7587180620196634e-01 5.1156991597432020e+00 3.7300000000000000e+02
-1.0231318767101392e+00 5.3634451254033966e+00 3.6313180615534617e+02
-1.0703919472183119e+00 5.6111910910635903e+00 3.5473610680615741e+02
-1.1176520177264846e+00 5.8589370567237848e+00 3.4648853337927380e+02
-1.1649120882346573e+00 6.1066830223839776e+00 3.3849753364465028e+02
-1.2121721587428300e+00 6.3544289880441722e+00 3.3067296488045866e+02
-1.2594322292510027e+00 6.6021749537043659e+00 3.2258006035555314e+02
-1.3066922997591754e+00 6.8499209193645596e+00 3.1495799157603170e+02
-1.3539523702673482e+00 7.0976668850247533e+00 3.0655610336090621e+02
-1.4012124407755209e+00 7.3454128506849470e+00 2.9907778260945668e+02
-1.4484725112836936e+00 7.5931588163451416e+00 2.8976165888324414e+02
-1.4957325817918665e+00 7.8409047820053352e+00 2.8369583051684782e+02
-1.5429926523000392e+00 8.0886507476655289e+00 2.8349063850225127e+02
-1.5902527228082119e+00 8.3363967133257226e+00 2.8353162848587289e+02
-1.6375127933163847e+00 8.5841426789859181e+00 2.8337443183897062e+02
-1.6847728638245572e+00 8.8318886446461100e+00 2.8333274424719110e+02
-1.7320329343327299e+00 9.0796346103063037e+00 2.8322957879355226e+02
-1.7792930048409028e+00 9.3273805759664974e+00 2.8316180704295033e+02
-1.8265530753490755e+00 9.5751265416266929e+00 2.8307722170191533e+02
-1.8738131458572482e+00 9.8228725072868865e+00 2.8300000000000000e+02
-1.5468987737478610e+00 4.7608648896403762e+00 3.7300000000000000e+02
-1.6281235721689986e+00 5.0108491145514904e+00 3.6592161961085441e+02
-1.7093483705901362e+00 5.2608333394626037e+00 3.5806800394657699e+02
-1.7905731690112738e+00 5.5108175643737178e+00 3.5036309482893250e+02
-1.8717979674324114e+00 5.7608017892848311e+00 3.4245833072575044e+02
-1.9530227658535491e+00 6.0107860141959453e+00 3.3446538909893115e+02
-2.0342475642746867e+00 6.2607702391070585e+00 3.2673436516530995e+02
-2.1154723626958241e+00 6.5107544640181709e+00 3.1854943134652189e+02
-2.1966971611169619e+00 6.7607386889292860e+00 3.1106192635025690e+02
-2.2779219595380993e+00 7.0107229138403984e+00 3.0254112078804957e+02
-2.3591467579592371e+00 7.2607071387515134e+00 2.9550645086099428e+02
-2.4403715563803745e+00 7.5106913636626258e+00 2.8365032608227796e+02
-2.5215963548015123e+00 7.7606755885737408e+00 2.8365002177799721e+02
-2.6028211532226497e+00 8.0106598134848532e+00 2.8343010788647149e+02
-2.6840459516437871e+00 8.2606440383959665e+00 2.8342017844474100e+02
-2.7652707500649250e+00 8.5106282633070798e+00 2.8330123010810462e+02
-2.8464955484860632e+00 8.7606124882181948e+00 2.8324428795854629e+02
-2.9277203469072002e+00 9.0105967131293081e+00 2.8315409076389949e+02
-3.0089451453283376e+00 9.2605809380404214e+00 2.8308051202544681e+02
-3.0901699437494754e+00 9.5105651629515346e+00 2.8300000000000000e+02
-2.0411246577711868e+00 4.3376106926622464e+00 3.7300000000000000e+02
-2.1577914081858998e+00 4.5855401575042443e+00 3.6811939650551409e+02
-2.2744581586006123e+00 4.8334696223462412e+00 3.6164590706256661e+02
-2.3911249090153248e+00 5.0813990871882391e+00 3.5407693968123027e+02
-2.5077916594300373e+00 5.3293285520302351e+00 3.4637436981662671e+02
-2.6244584098447503e+00 5.5772580168722330e+00 3.3853349270083004e+02
-2.7411251602594628e+00 5.8251874817142308e+00 3.3036802891350021e+02
-2.8577919106741754e+00 6.0731169465562278e+00 3.2262309097212028e+02
-2.9744586610888879e+00 6.3210464113982239e+00 3.1429926022963491e+02
-3.0911254115036004e+00 6.5689758762402217e+00 3.0714074706909145e+02
-3.2077921619183134e+00 6.8169053410822196e+00 2.9887306913045137e+02
-3.3244589123330259e+00 7.0648348059242165e+00 2.9620855212975647e+02
-3.4411256627477389e+00 7.3127642707662144e+00 2.8341818283396276e+02
-3.5577924131624510e+00 7.5606937356082105e+00 2.8349922066255488e+02
-3.6744591635771640e+00 7.8086232004502083e+00 2.8336507217819059e+02
-3.7911259139918760e+00 8.0565526652922035e+00 2.8332985975873430e+02
-3.9077926644065886e+00 8.3044821301342022e+00 2.8323215796795597e+02
-4.0244594148213020e+00 8.5524115949761992e+00 2.8316382840830448e+02
-4.1411261652360141e+00 8.8003410598181979e+00 2.8307888870494975e+02
-4.2577929156507270e+00 9.0482705246601949e+00 2.8300000000000000e+02
-2.6574331363114556e+00 4.1874445775525544e+00 3.7300000000000000e+02
-2.7995823370208512e+00 4.4114358763666379e+00 3.6517178141043286e+02
-2.9417315377302464e+00 4.6354271751807223e+00 3.5748220880188092e+02
-3.0838807384396416e+00 4.8594184739948059e+00 3.5019019971555406e+02
-3.2260299391490377e+00 5.0834097728088903e+00 3.4251673712869598e+02
-3.3681791398584329e+00 5.3074010716229738e+00 3.3465679093115153e+02
-3.5103283405678281e+00 5.5313923704370582e+00 3.2693487200471822e+02
-3.6524775412772237e+00 5.7553836692511418e+00 3.1872453100492373e+02
-3.7946267419866193e+00 5.9793749680652262e+00 3.1109584559438133e+02
-3.9367759426960145e+00 6.2033662668793106e+00 3.0250904344156487e+02
-4.0789251434054101e+00 6.4273575656933941e+00 2.9538951652998554e+02
-4.2210743441148049e+00 6.6513488645074776e+00 2.8370633202692176e+02
-4.3632235448242005e+00 6.8753401633215612e+00 2.8364536866243913e+02
-4.5053727455335961e+00 7.0993314621356456e+00 2.8344265091741323e+02
-4.6475219462429909e+00 7.3233227609497291e+00 2.8342497555495379e+02
-4.7896711469523874e+00 7.5473140597638144e+00 2.8330918305695809e+02
-4.9318203476617830e+00 7.7713053585778979e+00 2.8324758105156991e+02
-5.0739695483711778e+00 7.9952966573919824e+00 2.8315755578876292e+02
-5.2161187490805734e+00 8.2192879562060650e+00 2.8308167375964211e+02
-5.3582679497899690e+00 8.4432792550201494e+00 2.8300000000000000e+02
-3.2043833941588624e+00 3.8734341346388121e+00 3.7300000000000000e+02
-3.3712179469656012e+00 4.0751024658556059e+00 3.6512518260382802e+02
-3.5380524997723404e+00 4.2767707970724000e+00 3.5779644095053021e+02
-3.7048870525790787e+00 4.4784391282891933e+00 3.4970619007574311e+02
-3.8717216053858174e+00 4.6801074595059875e+00 3.4172316146989243e+02
-4.0385561581925558e+00 4.8817757907227808e+00 3.3373294138743410e+02
-4.2053907109992945e+00 5.0834441219395741e+00 3.2546045582647861e+02
-4.3722252638060333e+00 5.2851124531563682e+00 3.1752087853050125e+02
-4.5390598166127720e+00 5.4867807843731615e+00 3.0885581032590432e+02
-4.7058943694195108e+00 5.6884491155899557e+00 3.0080367737504662e+02
-4.8727289222262495e+00 5.8901174468067499e+00 2.9087322568624774e+02
-5.0395634750329883e+00 6.0917857780235432e+00 2.8370025292462697e+02
-5.2063980278397270e+00 6.2934541092403364e+00 2.8355082252348024e+02
-5.3732325806464649e+00 6.4951224404571297e+00 2.8355114772188449e+02
-5.5400671334532037e+00 6.6967907716739239e+00 2.8339984684888117e+02
-5.7069016862599433e+00 6.8984591028907181e+00 2.8334408407582174e+02
-5.8737362390666821e+00 7.1001274341075122e+00 2.8324264010466896e+02
-6.0405707918734208e+00 7.3017957653243055e+00 2.8316784788351760e+02
-6.2074053446801587e+00 7.5034640965410988e+00 2.8308128518806177e+02
-6.3742398974868975e+00 7.7051324277578921e+00 2.8300000000000000e+02
-3.7359574363113626e+00 3.5082975517700410e+00 3.7300000000000000e+02
-3.9229957962009814e+00 3.6839382626919805e+00 3.6594270854986655e+02
-4.1100341560905997e+00 3.8595789736139192e+00 3.5696343561251462e+02
-4.2970725159802186e+00 4.0352196845358588e+00 3.4866744330593457e+02
-4.4841108758698374e+00 4.2108603954577974e+00 3.4034528762935150e+02
-4.6711492357594562e+00 4.3865011063797370e+00 3.3206425693212429e+02
-4.8581875956490750e+00 4.5621418173016766e+00 3.2406724724708067e+02
-5.0452259555386929e+00 4.7377825282236152e+00 3.1571314249900985e+02
-5.2322643154283117e+00 4.9134232391455548e+00 3.0796876841945272e+02
-5.4193026753179305e+00 5.0890639500674935e+00 2.9953951679035634e+02
-5.6063410352075485e+00 5.2647046609894321e+00 2.9258871919896723e+02
-5.7933793950971673e+00 5.4403453719113717e+00 2.8360279685505867e+02
-5.9804177549867861e+00 5.6159860828333112e+00 2.8360231877005202e+02
-6.1674561148764049e+00 5.7916267937552508e+00 2.8344536530784734e+02
-6.3544944747660237e+00 5.9672675046771895e+00 2.8342120313354962e+02
-6.5415328346556416e+00 6.1429082155991281e+00 2.8331420871479867e+02
-6.7285711945452604e+00 6.3185489265210668e+00 2.8324800336794419e+02
-6.9156095544348792e+00 6.4941896374430064e+00 2.8315972982042115e+02
-7.1026479143244980e+00 6.6698303483649459e+00 2.8308192209094818e+02
-7.2896862742141169e+00 6.8454710592868846e+00 2.8300000000000000e+02
-4.2772450249492611e+00 3.1076004133249899e+00 3.7300000000000000e+02
-4.4779252838334820e+00 3.2534031559355023e+00 3.6147207381221358e+02
-4.6786055427177047e+00 3.3992058985460156e+00 3.5305708810486021e+02
-4.8792858016019256e+00 3.5450086411565280e+00 3.4464424297238963e+02
-5.0799660604861474e+00 3.6908113837670409e+00 3.3656380063641569e+02
-5.2806463193703692e+00 3.8366141263775537e+00 3.2866888032048485e+02
-5.4813265782545910e+00 3.9824168689880666e+00 3.2063573087673211e+02
-5.6820068371388128e+00 4.1282196115985794e+00 3.1307368438180919e+02
-5.8826870960230346e+00 4.2740223542090918e+00 3.0507022893472731e+02
-6.0833673549072564e+00 4.4198250968196042e+00 2.9789645701787128e+02
-6.2840476137914782e+00 4.5656278394301175e+00 2.8988846692887950e+02
-6.4847278726756992e+00 4.7114305820406299e+00 2.8365675273481531e+02
-6.6854081315599219e+00 4.8572333246511432e+00 2.8349389992053636e+02
-6.8860883904441437e+00 5.0030360672616556e+00 2.8349264467969630e+02
-7.0867686493283646e+00 5.1488388098721689e+00 2.8337155774617355e+02
-7.2874489082125864e+00 5.2946415524826813e+00 2.8331780518965900e+02
-7.4881291670968073e+00 5.4404442950931937e+00 2.8322870515731211e+02
-7.6888094259810309e+00 5.5862470377037070e+00 2.8315723998753805e+02
-7.8894896848652518e+00 5.7320497803142203e+00 2.8307707811240306e+02
-8.0901699437494727e+00 5.8778525229247327e+00 2.8300000000000000e+02
-4.4145430915666211e+00 2.4269156018942035e+00 3.7300000000000000e+02
-4.6434127604546225e+00 2.5527377671112008e+00 3.6716977845109756e+02
-4.8722824293426230e+00 2.6785599323281981e+00 3.5878715613889403e+02
-5.1011520982306235e+00 2.8043820975451954e+00 3.5062230713800159e+02
-5.3300217671186250e+00 2.9302042627621927e+00 3.4230944850159710e+02
-5.5588914360066246e+00 3.0560264279791900e+00 3.3394189285760007e+02
-5.7877611048946260e+00 3.1818485931961873e+00 3.2580326072343291e+02
-6.0166307737826266e+00 3.3076707584131846e+00 3.1731571466953835e+02
-6.2455004426706271e+00 3.4334929236301819e+00 3.0932867543237631e+02
-6.4743701115586285e+00 3.5593150888471792e+00 3.0068248700581438e+02
-6.7032397804466290e+00 3.6851372540641765e+00 2.9259044781126278e+02